# LAMMPS data file

480 atoms
0 bonds

1 atom types
0 bond types

0.000000000      73.785364410     xlo xhi
0.000000000      17.040000000     ylo yhi
0.000000000      20.000000000     zlo zhi

Masses

1 1.000000000      # C

Atoms

1 1 1 1.000000000      1.229756073      0.000000000      0.000000000      # C
2 1 1 1.000000000      0.000000000      0.710000000      0.000000000      # C
3 1 1 1.000000000      0.000000000      2.130000000      0.000000000      # C
4 1 1 1.000000000      1.229756073      2.840000000      0.000000000      # C
5 1 1 1.000000000      3.689268220      0.000000000      0.000000000      # C
6 1 1 1.000000000      2.459512147      0.710000000      0.000000000      # C
7 1 1 1.000000000      2.459512147      2.130000000      0.000000000      # C
8 1 1 1.000000000      3.689268220      2.840000000      0.000000000      # C
9 1 1 1.000000000      6.148780367      0.000000000      0.000000000      # C
10 1 1 1.000000000      4.919024294      0.710000000      0.000000000      # C
11 1 1 1.000000000      4.919024294      2.130000000      0.000000000      # C
12 1 1 1.000000000      6.148780367      2.840000000      0.000000000      # C
13 1 1 1.000000000      8.608292514      0.000000000      0.000000000      # C
14 1 1 1.000000000      7.378536441      0.710000000      0.000000000      # C
15 1 1 1.000000000      7.378536441      2.130000000      0.000000000      # C
16 1 1 1.000000000      8.608292514      2.840000000      0.000000000      # C
17 1 1 1.000000000      11.067804661     0.000000000      0.000000000      # C
18 1 1 1.000000000      9.838048588      0.710000000      0.000000000      # C
19 1 1 1.000000000      9.838048588      2.130000000      0.000000000      # C
20 1 1 1.000000000      11.067804661     2.840000000      0.000000000      # C
21 1 1 1.000000000      13.527316808     0.000000000      0.000000000      # C
22 1 1 1.000000000      12.297560735     0.710000000      0.000000000      # C
23 1 1 1.000000000      12.297560735     2.130000000      0.000000000      # C
24 1 1 1.000000000      13.527316808     2.840000000      0.000000000      # C
25 1 1 1.000000000      15.986828955     0.000000000      0.000000000      # C
26 1 1 1.000000000      14.757072882     0.710000000      0.000000000      # C
27 1 1 1.000000000      14.757072882     2.130000000      0.000000000      # C
28 1 1 1.000000000      15.986828955     2.840000000      0.000000000      # C
29 1 1 1.000000000      18.446341102     0.000000000      0.000000000      # C
30 1 1 1.000000000      17.216585029     0.710000000      0.000000000      # C
31 1 1 1.000000000      17.216585029     2.130000000      0.000000000      # C
32 1 1 1.000000000      18.446341102     2.840000000      0.000000000      # C
33 1 1 1.000000000      20.905853249     0.000000000      0.000000000      # C
34 1 1 1.000000000      19.676097176     0.710000000      0.000000000      # C
35 1 1 1.000000000      19.676097176     2.130000000      0.000000000      # C
36 1 1 1.000000000      20.905853249     2.840000000      0.000000000      # C
37 1 1 1.000000000      23.365365396     0.000000000      0.000000000      # C
38 1 1 1.000000000      22.135609323     0.710000000      0.000000000      # C
39 1 1 1.000000000      22.135609323     2.130000000      0.000000000      # C
40 1 1 1.000000000      23.365365396     2.840000000      0.000000000      # C
41 1 1 1.000000000      25.824877543     0.000000000      0.000000000      # C
42 1 1 1.000000000      24.595121470     0.710000000      0.000000000      # C
43 1 1 1.000000000      24.595121470     2.130000000      0.000000000      # C
44 1 1 1.000000000      25.824877543     2.840000000      0.000000000      # C
45 1 1 1.000000000      28.284389690     0.000000000      0.000000000      # C
46 1 1 1.000000000      27.054633617     0.710000000      0.000000000      # C
47 1 1 1.000000000      27.054633617     2.130000000      0.000000000      # C
48 1 1 1.000000000      28.284389690     2.840000000      0.000000000      # C
49 1 1 1.000000000      30.743901837     0.000000000      0.000000000      # C
50 1 1 1.000000000      29.514145764     0.710000000      0.000000000      # C
51 1 1 1.000000000      29.514145764     2.130000000      0.000000000      # C
52 1 1 1.000000000      30.743901837     2.840000000      0.000000000      # C
53 1 1 1.000000000      33.203413984     0.000000000      0.000000000      # C
54 1 1 1.000000000      31.973657911     0.710000000      0.000000000      # C
55 1 1 1.000000000      31.973657911     2.130000000      0.000000000      # C
56 1 1 1.000000000      33.203413984     2.840000000      0.000000000      # C
57 1 1 1.000000000      35.662926131     0.000000000      0.000000000      # C
58 1 1 1.000000000      34.433170058     0.710000000      0.000000000      # C
59 1 1 1.000000000      34.433170058     2.130000000      0.000000000      # C
60 1 1 1.000000000      35.662926131     2.840000000      0.000000000      # C
61 1 1 1.000000000      38.122438278     0.000000000      0.000000000      # C
62 1 1 1.000000000      36.892682205     0.710000000      0.000000000      # C
63 1 1 1.000000000      36.892682205     2.130000000      0.000000000      # C
64 1 1 1.000000000      38.122438278     2.840000000      0.000000000      # C
65 1 1 1.000000000      40.581950425     0.000000000      0.000000000      # C
66 1 1 1.000000000      39.352194352     0.710000000      0.000000000      # C
67 1 1 1.000000000      39.352194352     2.130000000      0.000000000      # C
68 1 1 1.000000000      40.581950425     2.840000000      0.000000000      # C
69 1 1 1.000000000      43.041462572     0.000000000      0.000000000      # C
70 1 1 1.000000000      41.811706499     0.710000000      0.000000000      # C
71 1 1 1.000000000      41.811706499     2.130000000      0.000000000      # C
72 1 1 1.000000000      43.041462572     2.840000000      0.000000000      # C
73 1 1 1.000000000      45.500974719     0.000000000      0.000000000      # C
74 1 1 1.000000000      44.271218646     0.710000000      0.000000000      # C
75 1 1 1.000000000      44.271218646     2.130000000      0.000000000      # C
76 1 1 1.000000000      45.500974719     2.840000000      0.000000000      # C
77 1 1 1.000000000      47.960486866     0.000000000      0.000000000      # C
78 1 1 1.000000000      46.730730793     0.710000000      0.000000000      # C
79 1 1 1.000000000      46.730730793     2.130000000      0.000000000      # C
80 1 1 1.000000000      47.960486866     2.840000000      0.000000000      # C
81 1 1 1.000000000      50.419999013     0.000000000      0.000000000      # C
82 1 1 1.000000000      49.190242940     0.710000000      0.000000000      # C
83 1 1 1.000000000      49.190242940     2.130000000      0.000000000      # C
84 1 1 1.000000000      50.419999013     2.840000000      0.000000000      # C
85 1 1 1.000000000      52.879511160     0.000000000      0.000000000      # C
86 1 1 1.000000000      51.649755087     0.710000000      0.000000000      # C
87 1 1 1.000000000      51.649755087     2.130000000      0.000000000      # C
88 1 1 1.000000000      52.879511160     2.840000000      0.000000000      # C
89 1 1 1.000000000      55.339023307     0.000000000      0.000000000      # C
90 1 1 1.000000000      54.109267234     0.710000000      0.000000000      # C
91 1 1 1.000000000      54.109267234     2.130000000      0.000000000      # C
92 1 1 1.000000000      55.339023307     2.840000000      0.000000000      # C
93 1 1 1.000000000      57.798535454     0.000000000      0.000000000      # C
94 1 1 1.000000000      56.568779381     0.710000000      0.000000000      # C
95 1 1 1.000000000      56.568779381     2.130000000      0.000000000      # C
96 1 1 1.000000000      57.798535454     2.840000000      0.000000000      # C
97 1 1 1.000000000      60.258047601     0.000000000      0.000000000      # C
98 1 1 1.000000000      59.028291528     0.710000000      0.000000000      # C
99 1 1 1.000000000      59.028291528     2.130000000      0.000000000      # C
100 1 1 1.000000000      60.258047601     2.840000000      0.000000000      # C
101 1 1 1.000000000      62.717559748     0.000000000      0.000000000      # C
102 1 1 1.000000000      61.487803675     0.710000000      0.000000000      # C
103 1 1 1.000000000      61.487803675     2.130000000      0.000000000      # C
104 1 1 1.000000000      62.717559748     2.840000000      0.000000000      # C
105 1 1 1.000000000      65.177071895     0.000000000      0.000000000      # C
106 1 1 1.000000000      63.947315822     0.710000000      0.000000000      # C
107 1 1 1.000000000      63.947315822     2.130000000      0.000000000      # C
108 1 1 1.000000000      65.177071895     2.840000000      0.000000000      # C
109 1 1 1.000000000      67.636584042     0.000000000      0.000000000      # C
110 1 1 1.000000000      66.406827969     0.710000000      0.000000000      # C
111 1 1 1.000000000      66.406827969     2.130000000      0.000000000      # C
112 1 1 1.000000000      67.636584042     2.840000000      0.000000000      # C
113 1 1 1.000000000      70.096096189     0.000000000      0.000000000      # C
114 1 1 1.000000000      68.866340116     0.710000000      0.000000000      # C
115 1 1 1.000000000      68.866340116     2.130000000      0.000000000      # C
116 1 1 1.000000000      70.096096189     2.840000000      0.000000000      # C
117 1 1 1.000000000      72.555608336     0.000000000      0.000000000      # C
118 1 1 1.000000000      71.325852263     0.710000000      0.000000000      # C
119 1 1 1.000000000      71.325852263     2.130000000      0.000000000      # C
120 1 1 1.000000000      72.555608336     2.840000000      0.000000000      # C
121 1 1 1.000000000      1.229756073      4.260000000      0.000000000      # C
122 1 1 1.000000000      0.000000000      4.970000000      0.000000000      # C
123 1 1 1.000000000      0.000000000      6.390000000      0.000000000      # C
124 1 1 1.000000000      1.229756073      7.100000000      0.000000000      # C
125 1 1 1.000000000      3.689268220      4.260000000      0.000000000      # C
126 1 1 1.000000000      2.459512147      4.970000000      0.000000000      # C
127 1 1 1.000000000      2.459512147      6.390000000      0.000000000      # C
128 1 1 1.000000000      3.689268220      7.100000000      0.000000000      # C
129 1 1 1.000000000      6.148780367      4.260000000      0.000000000      # C
130 1 1 1.000000000      4.919024294      4.970000000      0.000000000      # C
131 1 1 1.000000000      4.919024294      6.390000000      0.000000000      # C
132 1 1 1.000000000      6.148780367      7.100000000      0.000000000      # C
133 1 1 1.000000000      8.608292514      4.260000000      0.000000000      # C
134 1 1 1.000000000      7.378536441      4.970000000      0.000000000      # C
135 1 1 1.000000000      7.378536441      6.390000000      0.000000000      # C
136 1 1 1.000000000      8.608292514      7.100000000      0.000000000      # C
137 1 1 1.000000000      11.067804661     4.260000000      0.000000000      # C
138 1 1 1.000000000      9.838048588      4.970000000      0.000000000      # C
139 1 1 1.000000000      9.838048588      6.390000000      0.000000000      # C
140 1 1 1.000000000      11.067804661     7.100000000      0.000000000      # C
141 1 1 1.000000000      13.527316808     4.260000000      0.000000000      # C
142 1 1 1.000000000      12.297560735     4.970000000      0.000000000      # C
143 1 1 1.000000000      12.297560735     6.390000000      0.000000000      # C
144 1 1 1.000000000      13.527316808     7.100000000      0.000000000      # C
145 1 1 1.000000000      15.986828955     4.260000000      0.000000000      # C
146 1 1 1.000000000      14.757072882     4.970000000      0.000000000      # C
147 1 1 1.000000000      14.757072882     6.390000000      0.000000000      # C
148 1 1 1.000000000      15.986828955     7.100000000      0.000000000      # C
149 1 1 1.000000000      18.446341102     4.260000000      0.000000000      # C
150 1 1 1.000000000      17.216585029     4.970000000      0.000000000      # C
151 1 1 1.000000000      17.216585029     6.390000000      0.000000000      # C
152 1 1 1.000000000      18.446341102     7.100000000      0.000000000      # C
153 1 1 1.000000000      20.905853249     4.260000000      0.000000000      # C
154 1 1 1.000000000      19.676097176     4.970000000      0.000000000      # C
155 1 1 1.000000000      19.676097176     6.390000000      0.000000000      # C
156 1 1 1.000000000      20.905853249     7.100000000      0.000000000      # C
157 1 1 1.000000000      23.365365396     4.260000000      0.000000000      # C
158 1 1 1.000000000      22.135609323     4.970000000      0.000000000      # C
159 1 1 1.000000000      22.135609323     6.390000000      0.000000000      # C
160 1 1 1.000000000      23.365365396     7.100000000      0.000000000      # C
161 1 1 1.000000000      25.824877543     4.260000000      0.000000000      # C
162 1 1 1.000000000      24.595121470     4.970000000      0.000000000      # C
163 1 1 1.000000000      24.595121470     6.390000000      0.000000000      # C
164 1 1 1.000000000      25.824877543     7.100000000      0.000000000      # C
165 1 1 1.000000000      28.284389690     4.260000000      0.000000000      # C
166 1 1 1.000000000      27.054633617     4.970000000      0.000000000      # C
167 1 1 1.000000000      27.054633617     6.390000000      0.000000000      # C
168 1 1 1.000000000      28.284389690     7.100000000      0.000000000      # C
169 1 1 1.000000000      30.743901837     4.260000000      0.000000000      # C
170 1 1 1.000000000      29.514145764     4.970000000      0.000000000      # C
171 1 1 1.000000000      29.514145764     6.390000000      0.000000000      # C
172 1 1 1.000000000      30.743901837     7.100000000      0.000000000      # C
173 1 1 1.000000000      33.203413984     4.260000000      0.000000000      # C
174 1 1 1.000000000      31.973657911     4.970000000      0.000000000      # C
175 1 1 1.000000000      31.973657911     6.390000000      0.000000000      # C
176 1 1 1.000000000      33.203413984     7.100000000      0.000000000      # C
177 1 1 1.000000000      35.662926131     4.260000000      0.000000000      # C
178 1 1 1.000000000      34.433170058     4.970000000      0.000000000      # C
179 1 1 1.000000000      34.433170058     6.390000000      0.000000000      # C
180 1 1 1.000000000      35.662926131     7.100000000      0.000000000      # C
181 1 1 1.000000000      38.122438278     4.260000000      0.000000000      # C
182 1 1 1.000000000      36.892682205     4.970000000      0.000000000      # C
183 1 1 1.000000000      36.892682205     6.390000000      0.000000000      # C
184 1 1 1.000000000      38.122438278     7.100000000      0.000000000      # C
185 1 1 1.000000000      40.581950425     4.260000000      0.000000000      # C
186 1 1 1.000000000      39.352194352     4.970000000      0.000000000      # C
187 1 1 1.000000000      39.352194352     6.390000000      0.000000000      # C
188 1 1 1.000000000      40.581950425     7.100000000      0.000000000      # C
189 1 1 1.000000000      43.041462572     4.260000000      0.000000000      # C
190 1 1 1.000000000      41.811706499     4.970000000      0.000000000      # C
191 1 1 1.000000000      41.811706499     6.390000000      0.000000000      # C
192 1 1 1.000000000      43.041462572     7.100000000      0.000000000      # C
193 1 1 1.000000000      45.500974719     4.260000000      0.000000000      # C
194 1 1 1.000000000      44.271218646     4.970000000      0.000000000      # C
195 1 1 1.000000000      44.271218646     6.390000000      0.000000000      # C
196 1 1 1.000000000      45.500974719     7.100000000      0.000000000      # C
197 1 1 1.000000000      47.960486866     4.260000000      0.000000000      # C
198 1 1 1.000000000      46.730730793     4.970000000      0.000000000      # C
199 1 1 1.000000000      46.730730793     6.390000000      0.000000000      # C
200 1 1 1.000000000      47.960486866     7.100000000      0.000000000      # C
201 1 1 1.000000000      50.419999013     4.260000000      0.000000000      # C
202 1 1 1.000000000      49.190242940     4.970000000      0.000000000      # C
203 1 1 1.000000000      49.190242940     6.390000000      0.000000000      # C
204 1 1 1.000000000      50.419999013     7.100000000      0.000000000      # C
205 1 1 1.000000000      52.879511160     4.260000000      0.000000000      # C
206 1 1 1.000000000      51.649755087     4.970000000      0.000000000      # C
207 1 1 1.000000000      51.649755087     6.390000000      0.000000000      # C
208 1 1 1.000000000      52.879511160     7.100000000      0.000000000      # C
209 1 1 1.000000000      55.339023307     4.260000000      0.000000000      # C
210 1 1 1.000000000      54.109267234     4.970000000      0.000000000      # C
211 1 1 1.000000000      54.109267234     6.390000000      0.000000000      # C
212 1 1 1.000000000      55.339023307     7.100000000      0.000000000      # C
213 1 1 1.000000000      57.798535454     4.260000000      0.000000000      # C
214 1 1 1.000000000      56.568779381     4.970000000      0.000000000      # C
215 1 1 1.000000000      56.568779381     6.390000000      0.000000000      # C
216 1 1 1.000000000      57.798535454     7.100000000      0.000000000      # C
217 1 1 1.000000000      60.258047601     4.260000000      0.000000000      # C
218 1 1 1.000000000      59.028291528     4.970000000      0.000000000      # C
219 1 1 1.000000000      59.028291528     6.390000000      0.000000000      # C
220 1 1 1.000000000      60.258047601     7.100000000      0.000000000      # C
221 1 1 1.000000000      62.717559748     4.260000000      0.000000000      # C
222 1 1 1.000000000      61.487803675     4.970000000      0.000000000      # C
223 1 1 1.000000000      61.487803675     6.390000000      0.000000000      # C
224 1 1 1.000000000      62.717559748     7.100000000      0.000000000      # C
225 1 1 1.000000000      65.177071895     4.260000000      0.000000000      # C
226 1 1 1.000000000      63.947315822     4.970000000      0.000000000      # C
227 1 1 1.000000000      63.947315822     6.390000000      0.000000000      # C
228 1 1 1.000000000      65.177071895     7.100000000      0.000000000      # C
229 1 1 1.000000000      67.636584042     4.260000000      0.000000000      # C
230 1 1 1.000000000      66.406827969     4.970000000      0.000000000      # C
231 1 1 1.000000000      66.406827969     6.390000000      0.000000000      # C
232 1 1 1.000000000      67.636584042     7.100000000      0.000000000      # C
233 1 1 1.000000000      70.096096189     4.260000000      0.000000000      # C
234 1 1 1.000000000      68.866340116     4.970000000      0.000000000      # C
235 1 1 1.000000000      68.866340116     6.390000000      0.000000000      # C
236 1 1 1.000000000      70.096096189     7.100000000      0.000000000      # C
237 1 1 1.000000000      72.555608336     4.260000000      0.000000000      # C
238 1 1 1.000000000      71.325852263     4.970000000      0.000000000      # C
239 1 1 1.000000000      71.325852263     6.390000000      0.000000000      # C
240 1 1 1.000000000      72.555608336     7.100000000      0.000000000      # C
241 1 1 1.000000000      1.229756073      8.520000000      0.000000000      # C
242 1 1 1.000000000      0.000000000      9.230000000      0.000000000      # C
243 1 1 1.000000000      0.000000000      10.650000000     0.000000000      # C
244 1 1 1.000000000      1.229756073      11.360000000     0.000000000      # C
245 1 1 1.000000000      3.689268220      8.520000000      0.000000000      # C
246 1 1 1.000000000      2.459512147      9.230000000      0.000000000      # C
247 1 1 1.000000000      2.459512147      10.650000000     0.000000000      # C
248 1 1 1.000000000      3.689268220      11.360000000     0.000000000      # C
249 1 1 1.000000000      6.148780367      8.520000000      0.000000000      # C
250 1 1 1.000000000      4.919024294      9.230000000      0.000000000      # C
251 1 1 1.000000000      4.919024294      10.650000000     0.000000000      # C
252 1 1 1.000000000      6.148780367      11.360000000     0.000000000      # C
253 1 1 1.000000000      8.608292514      8.520000000      0.000000000      # C
254 1 1 1.000000000      7.378536441      9.230000000      0.000000000      # C
255 1 1 1.000000000      7.378536441      10.650000000     0.000000000      # C
256 1 1 1.000000000      8.608292514      11.360000000     0.000000000      # C
257 1 1 1.000000000      11.067804661     8.520000000      0.000000000      # C
258 1 1 1.000000000      9.838048588      9.230000000      0.000000000      # C
259 1 1 1.000000000      9.838048588      10.650000000     0.000000000      # C
260 1 1 1.000000000      11.067804661     11.360000000     0.000000000      # C
261 1 1 1.000000000      13.527316808     8.520000000      0.000000000      # C
262 1 1 1.000000000      12.297560735     9.230000000      0.000000000      # C
263 1 1 1.000000000      12.297560735     10.650000000     0.000000000      # C
264 1 1 1.000000000      13.527316808     11.360000000     0.000000000      # C
265 1 1 1.000000000      15.986828955     8.520000000      0.000000000      # C
266 1 1 1.000000000      14.757072882     9.230000000      0.000000000      # C
267 1 1 1.000000000      14.757072882     10.650000000     0.000000000      # C
268 1 1 1.000000000      15.986828955     11.360000000     0.000000000      # C
269 1 1 1.000000000      18.446341102     8.520000000      0.000000000      # C
270 1 1 1.000000000      17.216585029     9.230000000      0.000000000      # C
271 1 1 1.000000000      17.216585029     10.650000000     0.000000000      # C
272 1 1 1.000000000      18.446341102     11.360000000     0.000000000      # C
273 1 1 1.000000000      20.905853249     8.520000000      0.000000000      # C
274 1 1 1.000000000      19.676097176     9.230000000      0.000000000      # C
275 1 1 1.000000000      19.676097176     10.650000000     0.000000000      # C
276 1 1 1.000000000      20.905853249     11.360000000     0.000000000      # C
277 1 1 1.000000000      23.365365396     8.520000000      0.000000000      # C
278 1 1 1.000000000      22.135609323     9.230000000      0.000000000      # C
279 1 1 1.000000000      22.135609323     10.650000000     0.000000000      # C
280 1 1 1.000000000      23.365365396     11.360000000     0.000000000      # C
281 1 1 1.000000000      25.824877543     8.520000000      0.000000000      # C
282 1 1 1.000000000      24.595121470     9.230000000      0.000000000      # C
283 1 1 1.000000000      24.595121470     10.650000000     0.000000000      # C
284 1 1 1.000000000      25.824877543     11.360000000     0.000000000      # C
285 1 1 1.000000000      28.284389690     8.520000000      0.000000000      # C
286 1 1 1.000000000      27.054633617     9.230000000      0.000000000      # C
287 1 1 1.000000000      27.054633617     10.650000000     0.000000000      # C
288 1 1 1.000000000      28.284389690     11.360000000     0.000000000      # C
289 1 1 1.000000000      30.743901837     8.520000000      0.000000000      # C
290 1 1 1.000000000      29.514145764     9.230000000      0.000000000      # C
291 1 1 1.000000000      29.514145764     10.650000000     0.000000000      # C
292 1 1 1.000000000      30.743901837     11.360000000     0.000000000      # C
293 1 1 1.000000000      33.203413984     8.520000000      0.000000000      # C
294 1 1 1.000000000      31.973657911     9.230000000      0.000000000      # C
295 1 1 1.000000000      31.973657911     10.650000000     0.000000000      # C
296 1 1 1.000000000      33.203413984     11.360000000     0.000000000      # C
297 1 1 1.000000000      35.662926131     8.520000000      0.000000000      # C
298 1 1 1.000000000      34.433170058     9.230000000      0.000000000      # C
299 1 1 1.000000000      34.433170058     10.650000000     0.000000000      # C
300 1 1 1.000000000      35.662926131     11.360000000     0.000000000      # C
301 1 1 1.000000000      38.122438278     8.520000000      0.000000000      # C
302 1 1 1.000000000      36.892682205     9.230000000      0.000000000      # C
303 1 1 1.000000000      36.892682205     10.650000000     0.000000000      # C
304 1 1 1.000000000      38.122438278     11.360000000     0.000000000      # C
305 1 1 1.000000000      40.581950425     8.520000000      0.000000000      # C
306 1 1 1.000000000      39.352194352     9.230000000      0.000000000      # C
307 1 1 1.000000000      39.352194352     10.650000000     0.000000000      # C
308 1 1 1.000000000      40.581950425     11.360000000     0.000000000      # C
309 1 1 1.000000000      43.041462572     8.520000000      0.000000000      # C
310 1 1 1.000000000      41.811706499     9.230000000      0.000000000      # C
311 1 1 1.000000000      41.811706499     10.650000000     0.000000000      # C
312 1 1 1.000000000      43.041462572     11.360000000     0.000000000      # C
313 1 1 1.000000000      45.500974719     8.520000000      0.000000000      # C
314 1 1 1.000000000      44.271218646     9.230000000      0.000000000      # C
315 1 1 1.000000000      44.271218646     10.650000000     0.000000000      # C
316 1 1 1.000000000      45.500974719     11.360000000     0.000000000      # C
317 1 1 1.000000000      47.960486866     8.520000000      0.000000000      # C
318 1 1 1.000000000      46.730730793     9.230000000      0.000000000      # C
319 1 1 1.000000000      46.730730793     10.650000000     0.000000000      # C
320 1 1 1.000000000      47.960486866     11.360000000     0.000000000      # C
321 1 1 1.000000000      50.419999013     8.520000000      0.000000000      # C
322 1 1 1.000000000      49.190242940     9.230000000      0.000000000      # C
323 1 1 1.000000000      49.190242940     10.650000000     0.000000000      # C
324 1 1 1.000000000      50.419999013     11.360000000     0.000000000      # C
325 1 1 1.000000000      52.879511160     8.520000000      0.000000000      # C
326 1 1 1.000000000      51.649755087     9.230000000      0.000000000      # C
327 1 1 1.000000000      51.649755087     10.650000000     0.000000000      # C
328 1 1 1.000000000      52.879511160     11.360000000     0.000000000      # C
329 1 1 1.000000000      55.339023307     8.520000000      0.000000000      # C
330 1 1 1.000000000      54.109267234     9.230000000      0.000000000      # C
331 1 1 1.000000000      54.109267234     10.650000000     0.000000000      # C
332 1 1 1.000000000      55.339023307     11.360000000     0.000000000      # C
333 1 1 1.000000000      57.798535454     8.520000000      0.000000000      # C
334 1 1 1.000000000      56.568779381     9.230000000      0.000000000      # C
335 1 1 1.000000000      56.568779381     10.650000000     0.000000000      # C
336 1 1 1.000000000      57.798535454     11.360000000     0.000000000      # C
337 1 1 1.000000000      60.258047601     8.520000000      0.000000000      # C
338 1 1 1.000000000      59.028291528     9.230000000      0.000000000      # C
339 1 1 1.000000000      59.028291528     10.650000000     0.000000000      # C
340 1 1 1.000000000      60.258047601     11.360000000     0.000000000      # C
341 1 1 1.000000000      62.717559748     8.520000000      0.000000000      # C
342 1 1 1.000000000      61.487803675     9.230000000      0.000000000      # C
343 1 1 1.000000000      61.487803675     10.650000000     0.000000000      # C
344 1 1 1.000000000      62.717559748     11.360000000     0.000000000      # C
345 1 1 1.000000000      65.177071895     8.520000000      0.000000000      # C
346 1 1 1.000000000      63.947315822     9.230000000      0.000000000      # C
347 1 1 1.000000000      63.947315822     10.650000000     0.000000000      # C
348 1 1 1.000000000      65.177071895     11.360000000     0.000000000      # C
349 1 1 1.000000000      67.636584042     8.520000000      0.000000000      # C
350 1 1 1.000000000      66.406827969     9.230000000      0.000000000      # C
351 1 1 1.000000000      66.406827969     10.650000000     0.000000000      # C
352 1 1 1.000000000      67.636584042     11.360000000     0.000000000      # C
353 1 1 1.000000000      70.096096189     8.520000000      0.000000000      # C
354 1 1 1.000000000      68.866340116     9.230000000      0.000000000      # C
355 1 1 1.000000000      68.866340116     10.650000000     0.000000000      # C
356 1 1 1.000000000      70.096096189     11.360000000     0.000000000      # C
357 1 1 1.000000000      72.555608336     8.520000000      0.000000000      # C
358 1 1 1.000000000      71.325852263     9.230000000      0.000000000      # C
359 1 1 1.000000000      71.325852263     10.650000000     0.000000000      # C
360 1 1 1.000000000      72.555608336     11.360000000     0.000000000      # C
361 1 1 1.000000000      1.229756073      12.780000000     0.000000000      # C
362 1 1 1.000000000      0.000000000      13.490000000     0.000000000      # C
363 1 1 1.000000000      0.000000000      14.910000000     0.000000000      # C
364 1 1 1.000000000      1.229756073      15.620000000     0.000000000      # C
365 1 1 1.000000000      3.689268220      12.780000000     0.000000000      # C
366 1 1 1.000000000      2.459512147      13.490000000     0.000000000      # C
367 1 1 1.000000000      2.459512147      14.910000000     0.000000000      # C
368 1 1 1.000000000      3.689268220      15.620000000     0.000000000      # C
369 1 1 1.000000000      6.148780367      12.780000000     0.000000000      # C
370 1 1 1.000000000      4.919024294      13.490000000     0.000000000      # C
371 1 1 1.000000000      4.919024294      14.910000000     0.000000000      # C
372 1 1 1.000000000      6.148780367      15.620000000     0.000000000      # C
373 1 1 1.000000000      8.608292514      12.780000000     0.000000000      # C