# LAMMPS data file

80 atoms
120 bonds
240 angles
480 dihedrals

1 atom types
1 bond types
1 angle types
1 dihedral types

0.000000000      17.320508080     xlo xhi
0.000000000      6.000000000      ylo yhi
0.000000000      6.661000000      zlo zhi

Masses

1 1.000000000      # B

Atoms

1 1 1 1.000000000      0.866020000      0.000000000      0.000000000      # B
2 1 1 1.000000000      0.000000000      0.500000000      0.000000000      # B
3 1 1 1.000000000      0.000000000      1.500000000      0.000000000      # B
4 1 1 1.000000000      0.866020000      2.000000000      0.000000000      # B
5 1 1 1.000000000      2.598070808      0.000000000      0.000000000      # B
6 1 1 1.000000000      1.732050808      0.500000000      0.000000000      # B
7 1 1 1.000000000      1.732050808      1.500000000      0.000000000      # B
8 1 1 1.000000000      2.598070808      2.000000000      0.000000000      # B
9 1 1 1.000000000      4.330121616      0.000000000      0.000000000      # B
10 1 1 1.000000000      3.464101616      0.500000000      0.000000000      # B
11 1 1 1.000000000      3.464101616      1.500000000      0.000000000      # B
12 1 1 1.000000000      4.330121616      2.000000000      0.000000000      # B
13 1 1 1.000000000      6.062172424      0.000000000      0.000000000      # B
14 1 1 1.000000000      5.196152424      0.500000000      0.000000000      # B
15 1 1 1.000000000      5.196152424      1.500000000      0.000000000      # B
16 1 1 1.000000000      6.062172424      2.000000000      0.000000000      # B
17 1 1 1.000000000      7.794223232      0.000000000      0.000000000      # B
18 1 1 1.000000000      6.928203232      0.500000000      0.000000000      # B
19 1 1 1.000000000      6.928203232      1.500000000      0.000000000      # B
20 1 1 1.000000000      7.794223232      2.000000000      0.000000000      # B
21 1 1 1.000000000      9.526274040      0.000000000      0.000000000      # B
22 1 1 1.000000000      8.660254040      0.500000000      0.000000000      # B
23 1 1 1.000000000      8.660254040      1.500000000      0.000000000      # B
24 1 1 1.000000000      9.526274040      2.000000000      0.000000000      # B
25 1 1 1.000000000      11.258324848     0.000000000      0.000000000      # B
26 1 1 1.000000000      10.392304848     0.500000000      0.000000000      # B
27 1 1 1.000000000      10.392304848     1.500000000      0.000000000      # B
28 1 1 1.000000000      11.258324848     2.000000000      0.000000000      # B
29 1 1 1.000000000      12.990375656     0.000000000      0.000000000      # B
30 1 1 1.000000000      12.124355656     0.500000000      0.000000000      # B
31 1 1 1.000000000      12.124355656     1.500000000      0.000000000      # B
32 1 1 1.000000000      12.990375656     2.000000000      0.000000000      # B
33 1 1 1.000000000      14.722426464     0.000000000      0.000000000      # B
34 1 1 1.000000000      13.856406464     0.500000000      0.000000000      # B
35 1 1 1.000000000      13.856406464     1.500000000      0.000000000      # B
36 1 1 1.000000000      14.722426464     2.000000000      0.000000000      # B
37 1 1 1.000000000      16.454477272     0.000000000      0.000000000      # B
38 1 1 1.000000000      15.588457272     0.500000000      0.000000000      # B
39 1 1 1.000000000      15.588457272     1.500000000      0.000000000      # B
40 1 1 1.000000000      16.454477272     2.000000000      0.000000000      # B
41 1 1 1.000000000      0.866020000      3.000000000      0.000000000      # B
42 1 1 1.000000000      0.000000000      3.500000000      0.000000000      # B
43 1 1 1.000000000      0.000000000      4.500000000      0.000000000      # B
44 1 1 1.000000000      0.866020000      5.000000000      0.000000000      # B
45 1 1 1.000000000      2.598070808      3.000000000      0.000000000      # B
46 1 1 1.000000000      1.732050808      3.500000000      0.000000000      # B
47 1 1 1.000000000      1.732050808      4.500000000      0.000000000      # B
48 1 1 1.000000000      2.598070808      5.000000000      0.000000000      # B
49 1 1 1.000000000      4.330121616      3.000000000      0.000000000      # B
50 1 1 1.000000000      3.464101616      3.500000000      0.000000000      # B
51 1 1 1.000000000      3.464101616      4.500000000      0.000000000      # B
52 1 1 1.000000000      4.330121616      5.000000000      0.000000000      # B
53 1 1 1.000000000      6.062172424      3.000000000      0.000000000      # B
54 1 1 1.000000000      5.196152424      3.500000000      0.000000000      # B
55 1 1 1.000000000      5.196152424      4.500000000      0.000000000      # B
56 1 1 1.000000000      6.062172424      5.000000000      0.000000000      # B
57 1 1 1.000000000      7.794223232      3.000000000      0.000000000      # B
58 1 1 1.000000000      6.928203232      3.500000000      0.000000000      # B
59 1 1 1.000000000      6.928203232      4.500000000      0.000000000      # B
60 1 1 1.000000000      7.794223232      5.000000000      0.000000000      # B
61 1 1 1.000000000      9.526274040      3.000000000      0.000000000      # B
62 1 1 1.000000000      8.660254040      3.500000000      0.000000000      # B
63 1 1 1.000000000      8.660254040      4.500000000      0.000000000      # B
64 1 1 1.000000000      9.526274040      5.000000000      0.000000000      # B
65 1 1 1.000000000      11.258324848     3.000000000      0.000000000      # B
66 1 1 1.000000000      10.392304848     3.500000000      0.000000000      # B
67 1 1 1.000000000      10.392304848     4.500000000      0.000000000      # B
68 1 1 1.000000000      11.258324848     5.000000000      0.000000000      # B
69 1 1 1.000000000      12.990375656     3.000000000      0.000000000      # B
70 1 1 1.000000000      12.124355656     3.500000000      0.000000000      # B
71 1 1 1.000000000      12.124355656     4.500000000      0.000000000      # B
72 1 1 1.000000000      12.990375656     5.000000000      0.000000000      # B
73 1 1 1.000000000      14.722426464     3.000000000      0.000000000      # B
74 1 1 1.000000000      13.856406464     3.500000000      0.000000000      # B
75 1 1 1.000000000      13.856406464     4.500000000      0.000000000      # B
76 1 1 1.000000000      14.722426464     5.000000000      0.000000000      # B
77 1 1 1.000000000      16.454477272     3.000000000      0.000000000      # B
78 1 1 1.000000000      15.588457272     3.500000000      0.000000000      # B
79 1 1 1.000000000      15.588457272     4.500000000      0.000000000      # B
80 1 1 1.000000000      16.454477272     5.000000000      0.000000000      # B

Bonds

1 1 1 2 # 1 1
2 1 1 6 # 1 1
3 1 1 44 # 1 1
4 1 2 3 # 1 1
5 1 2 37 # 1 1
6 1 3 4 # 1 1
7 1 3 40 # 1 1
8 1 4 7 # 1 1
9 1 4 41 # 1 1
10 1 5 6 # 1 1
11 1 5 10 # 1 1
12 1 5 48 # 1 1
13 1 6 7 # 1 1
14 1 7 8 # 1 1
15 1 8 11 # 1 1
16 1 8 45 # 1 1
17 1 9 10 # 1 1
18 1 9 14 # 1 1
19 1 9 52 # 1 1
20 1 10 11 # 1 1
21 1 11 12 # 1 1
22 1 12 15 # 1 1
23 1 12 49 # 1 1
24 1 13 14 # 1 1
25 1 13 18 # 1 1
26 1 13 56 # 1 1
27 1 14 15 # 1 1
28 1 15 16 # 1 1
29 1 16 19 # 1 1
30 1 16 53 # 1 1
31 1 17 18 # 1 1
32 1 17 22 # 1 1
33 1 17 60 # 1 1
34 1 18 19 # 1 1
35 1 19 20 # 1 1
36 1 20 23 # 1 1
37 1 20 57 # 1 1
38 1 21 22 # 1 1
39 1 21 26 # 1 1
40 1 21 64 # 1 1
41 1 22 23 # 1 1
42 1 23 24 # 1 1
43 1 24 27 # 1 1
44 1 24 61 # 1 1
45 1 25 26 # 1 1
46 1 25 30 # 1 1
47 1 25 68 # 1 1
48 1 26 27 # 1 1
49 1 27 28 # 1 1
50 1 28 31 # 1 1
51 1 28 65 # 1 1
52 1 29 30 # 1 1
53 1 29 34 # 1 1
54 1 29 72 # 1 1
55 1 30 31 # 1 1
56 1 31 32 # 1 1
57 1 32 35 # 1 1
58 1 32 69 # 1 1
59 1 33 34 # 1 1
60 1 33 38 # 1 1
61 1 33 76 # 1 1
62 1 34 35 # 1 1
63 1 35 36 # 1 1
64 1 36 39 # 1 1
65 1 36 73 # 1 1
66 1 37 38 # 1 1
67 1 37 80 # 1 1
68 1 38 39 # 1 1
69 1 39 40 # 1 1
70 1 40 77 # 1 1
71 1 41 42 # 1 1
72 1 41 46 # 1 1
73 1 42 43 # 1 1
74 1 42 77 # 1 1
75 1 43 44 # 1 1
76 1 43 80 # 1 1
77 1 44 47 # 1 1
78 1 45 46 # 1 1
79 1 45 50 # 1 1
80 1 46 47 # 1 1
81 1 47 48 # 1 1
82 1 48 51 # 1 1
83 1 49 50 # 1 1
84 1 49 54 # 1 1
85 1 50 51 # 1 1
86 1 51 52 # 1 1
87 1 52 55 # 1 1
88 1 53 54 # 1 1
89 1 53 58 # 1 1
90 1 54 55 # 1 1
91 1 55 56 # 1 1
92 1 56 59 # 1 1
93 1 57 58 # 1 1
94 1 57 62 # 1 1
95 1 58 59 # 1 1
96 1 59 60 # 1 1
97 1 60 63 # 1 1
98 1 61 62 # 1 1
99 1 61 66 # 1 1
100 1 62 63 # 1 1
101 1 63 64 # 1 1
102 1 64 67 # 1 1
103 1 65 66 # 1 1
104 1 65 70 # 1 1
105 1 66 67 # 1 1
106 1 67 68 # 1 1
107 1 68 71 # 1 1
108 1 69 70 # 1 1
109 1 69 74 # 1 1
110 1 70 71 # 1 1
111 1 71 72 # 1 1
112 1 72 75 # 1 1
113 1 73 74 # 1 1
114 1 73 78 # 1 1
115 1 74 75 # 1 1
116 1 75 76 # 1 1
117 1 76 79 # 1 1
118 1 77 78 # 1 1
119 1 78 79 # 1 1
120 1 79 80 # 1 1

Angles

1 1 1 2 3 # 1 1 1
2 1 1 2 37 # 1 1 1
3 1 2 1 6 # 1 1 1
4 1 2 1 44 # 1 1 1
5 1 1 6 5 # 1 1 1
6 1 1 6 7 # 1 1 1
7 1 6 1 44 # 1 1 1
8 1 1 44 43 # 1 1 1
9 1 1 44 47 # 1 1 1
10 1 2 3 4 # 1 1 1
11 1 2 3 40 # 1 1 1
12 1 3 2 37 # 1 1 1
13 1 2 37 38 # 1 1 1
14 1 2 37 80 # 1 1 1
15 1 3 4 7 # 1 1 1
16 1 3 4 41 # 1 1 1
17 1 4 3 40 # 1 1 1
18 1 3 40 39 # 1 1 1
19 1 3 40 77 # 1 1 1
20 1 4 7 6 # 1 1 1
21 1 4 7 8 # 1 1 1
22 1 7 4 41 # 1 1 1
23 1 4 41 42 # 1 1 1
24 1 4 41 46 # 1 1 1
25 1 5 6 7 # 1 1 1
26 1 6 5 10 # 1 1 1
27 1 6 5 48 # 1 1 1
28 1 5 10 9 # 1 1 1
29 1 5 10 11 # 1 1 1
30 1 10 5 48 # 1 1 1
31 1 5 48 47 # 1 1 1
32 1 5 48 51 # 1 1 1
33 1 6 7 8 # 1 1 1
34 1 7 8 11 # 1 1 1
35 1 7 8 45 # 1 1 1
36 1 8 11 10 # 1 1 1
37 1 8 11 12 # 1 1 1
38 1 11 8 45 # 1 1 1
39 1 8 45 46 # 1 1 1
40 1 8 45 50 # 1 1 1
41 1 9 10 11 # 1 1 1
42 1 10 9 14 # 1 1 1
43 1 10 9 52 # 1 1 1
44 1 9 14 13 # 1 1 1
45 1 9 14 15 # 1 1 1
46 1 14 9 52 # 1 1 1
47 1 9 52 51 # 1 1 1
48 1 9 52 55 # 1 1 1
49 1 10 11 12 # 1 1 1
50 1 11 12 15 # 1 1 1
51 1 11 12 49 # 1 1 1
52 1 12 15 14 # 1 1 1
53 1 12 15 16 # 1 1 1
54 1 15 12 49 # 1 1 1
55 1 12 49 50 # 1 1 1
56 1 12 49 54 # 1 1 1
57 1 13 14 15 # 1 1 1
58 1 14 13 18 # 1 1 1
59 1 14 13 56 # 1 1 1
60 1 13 18 17 # 1 1 1
61 1 13 18 19 # 1 1 1
62 1 18 13 56 # 1 1 1
63 1 13 56 55 # 1 1 1
64 1 13 56 59 # 1 1 1
65 1 14 15 16 # 1 1 1
66 1 15 16 19 # 1 1 1
67 1 15 16 53 # 1 1 1
68 1 16 19 18 # 1 1 1
69 1 16 19 20 # 1 1 1
70 1 19 16 53 # 1 1 1
71 1 16 53 54 # 1 1 1
72 1 16 53 58 # 1 1 1
73 1 17 18 19 # 1 1 1
74 1 18 17 22 # 1 1 1
75 1 18 17 60 # 1 1 1
76 1 17 22 21 # 1 1 1
77 1 17 22 23 # 1 1 1
78 1 22 17 60 # 1 1 1
79 1 17 60 59 # 1 1 1
80 1 17 60 63 # 1 1 1
81 1 18 19 20 # 1 1 1
82 1 19 20 23 # 1 1 1
83 1 19 20 57 # 1 1 1
84 1 20 23 22 # 1 1 1
85 1 20 23 24 # 1 1 1
86 1 23 20 57 # 1 1 1
87 1 20 57 58 # 1 1 1
88 1 20 57 62 # 1 1 1
89 1 21 22 23 # 1 1 1
90 1 22 21 26 # 1 1 1
91 1 22 21 64 # 1 1 1
92 1 21 26 25 # 1 1 1
93 1 21 26 27 # 1 1 1
94 1 26 21 64 # 1 1 1
95 1 21 64 63 # 1 1 1
96 1 21 64 67 # 1 1 1
97 1 22 23 24 # 1 1 1
98 1 23 24 27 # 1 1 1
99 1 23 24 61 # 1 1 1
100 1 24 27 26 # 1 1 1
101 1 24 27 28 # 1 1 1
102 1 27 24 61 # 1 1 1
103 1 24 61 62 # 1 1 1
104 1 24 61 66 # 1 1 1
105 1 25 26 27 # 1 1 1
106 1 26 25 30 # 1 1 1
107 1 26 25 68 # 1 1 1
108 1 25 30 29 # 1 1 1
109 1 25 30 31 # 1 1 1
110 1 30 25 68 # 1 1 1
111 1 25 68 67 # 1 1 1
112 1 25 68 71 # 1 1 1
113 1 26 27 28 # 1 1 1
114 1 27 28 31 # 1 1 1
115 1 27 28 65 # 1 1 1
116 1 28 31 30 # 1 1 1
117 1 28 31 32 # 1 1 1
118 1 31 28 65 # 1 1 1
119 1 28 65 66 # 1 1 1
120 1 28 65 70 # 1 1 1
121 1 29 30 31 # 1 1 1
122 1 30 29 34 # 1 1 1
123 1 30 29 72 # 1 1 1
124 1 29 34 33 # 1 1 1
125 1 29 34 35 # 1 1 1
126 1 34 29 72 # 1 1 1
127 1 29 72 71 # 1 1 1
128 1 29 72 75 # 1 1 1
129 1 30 31 32 # 1 1 1
130 1 31 32 35 # 1 1 1
131 1 31 32 69 # 1 1 1
132 1 32 35 34 # 1 1 1
133 1 32 35 36 # 1 1 1
134 1 35 32 69 # 1 1 1
135 1 32 69 70 # 1 1 1
136 1 32 69 74 # 1 1 1
137 1 33 34 35 # 1 1 1
138 1 34 33 38 # 1 1 1
139 1 34 33 76 # 1 1 1
140 1 33 38 37 # 1 1 1
141 1 33 38 39 # 1 1 1
142 1 38 33 76 # 1 1 1
143 1 33 76 75 # 1 1 1
144 1 33 76 79 # 1 1 1
145 1 34 35 36 # 1 1 1
146 1 35 36 39 # 1 1 1
147 1 35 36 73 # 1 1 1
148 1 36 39 38 # 1 1 1
149 1 36 39 40 # 1 1 1
150 1 39 36 73 # 1 1 1
151 1 36 73 74 # 1 1 1
152 1 36 73 78 # 1 1 1
153 1 37 38 39 # 1 1 1
154 1 38 37 80 # 1 1 1
155 1 37 80 43 # 1 1 1
156 1 37 80 79 # 1 1 1
157 1 38 39 40 # 1 1 1
158 1 39 40 77 # 1 1 1
159 1 40 77 42 # 1 1 1
160 1 40 77 78 # 1 1 1
161 1 41 42 43 # 1 1 1
162 1 41 42 77 # 1 1 1
163 1 42 41 46 # 1 1 1
164 1 41 46 45 # 1 1 1
165 1 41 46 47 # 1 1 1
166 1 42 43 44 # 1 1 1
167 1 42 43 80 # 1 1 1
168 1 43 42 77 # 1 1 1
169 1 42 77 78 # 1 1 1
170 1 43 44 47 # 1 1 1
171 1 44 43 80 # 1 1 1
172 1 43 80 79 # 1 1 1
173 1 44 47 46 # 1 1 1
174 1 44 47 48 # 1 1 1
175 1 45 46 47 # 1 1 1
176 1 46 45 50 # 1 1 1
177 1 45 50 49 # 1 1 1
178 1 45 50 51 # 1 1 1
179 1 46 47 48 # 1 1 1
180 1 47 48 51 # 1 1 1
181 1 48 51 50 # 1 1 1
182 1 48 51 52 # 1 1 1
183 1 49 50 51 # 1 1 1
184 1 50 49 54 # 1 1 1
185 1 49 54 53 # 1 1 1
186 1 49 54 55 # 1 1 1
187 1 50 51 52 # 1 1 1
188 1 51 52 55 # 1 1 1
189 1 52 55 54 # 1 1 1
190 1 52 55 56 # 1 1 1
191 1 53 54 55 # 1 1 1
192 1 54 53 58 # 1 1 1
193 1 53 58 57 # 1 1 1
194 1 53 58 59 # 1 1 1
195 1 54 55 56 # 1 1 1
196 1 55 56 59 # 1 1 1
197 1 56 59 58 # 1 1 1
198 1 56 59 60 # 1 1 1
199 1 57 58 59 # 1 1 1
200 1 58 57 62 # 1 1 1
201 1 57 62 61 # 1 1 1
202 1 57 62 63 # 1 1 1
203 1 58 59 60 # 1 1 1
204 1 59 60 63 # 1 1 1
205 1 60 63 62 # 1 1 1
206 1 60 63 64 # 1 1 1
207 1 61 62 63 # 1 1 1
208 1 62 61 66 # 1 1 1
209 1 61 66 65 # 1 1 1
210 1 61 66 67 # 1 1 1
211 1 62 63 64 # 1 1 1
212 1 63 64 67 # 1 1 1
213 1 64 67 66 # 1 1 1
214 1 64 67 68 # 1 1 1
215 1 65 66 67 # 1 1 1
216 1 66 65 70 # 1 1 1
217 1 65 70 69 # 1 1 1
218 1 65 70 71 # 1 1 1
219 1 66 67 68 # 1 1 1
220 1 67 68 71 # 1 1 1
221 1 68 71 70 # 1 1 1
222 1 68 71 72 # 1 1 1
223 1 69 70 71 # 1 1 1
224 1 70 69 74 # 1 1 1
225 1 69 74 73 # 1 1 1
226 1 69 74 75 # 1 1 1
227 1 70 71 72 # 1 1 1
228 1 71 72 75 # 1 1 1
229 1 72 75 74 # 1 1 1
230 1 72 75 76 # 1 1 1
231 1 73 74 75 # 1 1 1
232 1 74 73 78 # 1 1 1
233 1 73 78 77 # 1 1 1
234 1 73 78 79 # 1 1 1
235 1 74 75 76 # 1 1 1
236 1 75 76 79 # 1 1 1
237 1 76 79 78 # 1 1 1
238 1 76 79 80 # 1 1 1
239 1 77 78 79 # 1 1 1
240 1 78 79 80 # 1 1 1

Dihedrals

1 1 1 2 3 4 # 1 1 1 1
2 1 1 2 3 40 # 1 1 1 1
3 1 1 2 37 38 # 1 1 1 1
4 1 1 2 37 80 # 1 1 1 1
5 1 2 1 6 5 # 1 1 1 1
6 1 2 1 6 7 # 1 1 1 1
7 1 2 1 44 43 # 1 1 1 1
8 1 2 1 44 47 # 1 1 1 1
9 1 1 6 5 10 # 1 1 1 1
10 1 1 6 5 48 # 1 1 1 1
11 1 1 6 7 4 # 1 1 1 1
12 1 1 6 7 8 # 1 1 1 1
13 1 6 1 2 3 # 1 1 1 1
14 1 6 1 2 37 # 1 1 1 1
15 1 6 1 44 43 # 1 1 1 1
16 1 6 1 44 47 # 1 1 1 1
17 1 1 44 43 42 # 1 1 1 1
18 1 1 44 43 80 # 1 1 1 1
19 1 1 44 47 46 # 1 1 1 1
20 1 1 44 47 48 # 1 1 1 1
21 1 44 1 2 3 # 1 1 1 1
22 1 44 1 2 37 # 1 1 1 1
23 1 44 1 6 5 # 1 1 1 1
24 1 44 1 6 7 # 1 1 1 1
25 1 2 3 4 7 # 1 1 1 1
26 1 2 3 4 41 # 1 1 1 1
27 1 2 3 40 39 # 1 1 1 1
28 1 2 3 40 77 # 1 1 1 1
29 1 3 2 37 38 # 1 1 1 1
30 1 3 2 37 80 # 1 1 1 1
31 1 2 37 38 33 # 1 1 1 1
32 1 2 37 38 39 # 1 1 1 1
33 1 2 37 80 43 # 1 1 1 1
34 1 2 37 80 79 # 1 1 1 1
35 1 37 2 3 4 # 1 1 1 1
36 1 37 2 3 40 # 1 1 1 1
37 1 3 4 7 6 # 1 1 1 1
38 1 3 4 7 8 # 1 1 1 1
39 1 3 4 41 42 # 1 1 1 1
40 1 3 4 41 46 # 1 1 1 1
41 1 4 3 40 39 # 1 1 1 1
42 1 4 3 40 77 # 1 1 1 1
43 1 3 40 39 36 # 1 1 1 1
44 1 3 40 39 38 # 1 1 1 1
45 1 3 40 77 42 # 1 1 1 1
46 1 3 40 77 78 # 1 1 1 1
47 1 40 3 4 7 # 1 1 1 1
48 1 40 3 4 41 # 1 1 1 1
49 1 4 7 6 5 # 1 1 1 1
50 1 4 7 8 11 # 1 1 1 1
51 1 4 7 8 45 # 1 1 1 1
52 1 7 4 41 42 # 1 1 1 1
53 1 7 4 41 46 # 1 1 1 1
54 1 4 41 42 43 # 1 1 1 1
55 1 4 41 42 77 # 1 1 1 1
56 1 4 41 46 45 # 1 1 1 1
57 1 4 41 46 47 # 1 1 1 1
58 1 41 4 7 6 # 1 1 1 1
59 1 41 4 7 8 # 1 1 1 1
60 1 5 6 7 8 # 1 1 1 1
61 1 6 5 10 9 # 1 1 1 1
62 1 6 5 10 11 # 1 1 1 1
63 1 6 5 48 47 # 1 1 1 1
64 1 6 5 48 51 # 1 1 1 1
65 1 5 10 9 14 # 1 1 1 1
66 1 5 10 9 52 # 1 1 1 1
67 1 5 10 11 8 # 1 1 1 1
68 1 5 10 11 12 # 1 1 1 1
69 1 10 5 6 7 # 1 1 1 1
70 1 10 5 48 47 # 1 1 1 1
71 1 10 5 48 51 # 1 1 1 1
72 1 5 48 47 44 # 1 1 1 1
73 1 5 48 47 46 # 1 1 1 1
74 1 5 48 51 50 # 1 1 1 1
75 1 5 48 51 52 # 1 1 1 1
76 1 48 5 6 7 # 1 1 1 1
77 1 48 5 10 9 # 1 1 1 1
78 1 48 5 10 11 # 1 1 1 1
79 1 6 7 8 11 # 1 1 1 1
80 1 6 7 8 45 # 1 1 1 1
81 1 7 8 11 10 # 1 1 1 1
82 1 7 8 11 12 # 1 1 1 1
83 1 7 8 45 46 # 1 1 1 1
84 1 7 8 45 50 # 1 1 1 1
85 1 8 11 10 9 # 1 1 1 1
86 1 8 11 12 15 # 1 1 1 1
87 1 8 11 12 49 # 1 1 1 1
88 1 11 8 45 46 # 1 1 1 1
89 1 11 8 45 50 # 1 1 1 1
90 1 8 45 46 41 # 1 1 1 1
91 1 8 45 46 47 # 1 1 1 1
92 1 8 45 50 49 # 1 1 1 1
93 1 8 45 50 51 # 1 1 1 1
94 1 45 8 11 10 # 1 1 1 1
95 1 45 8 11 12 # 1 1 1 1
96 1 9 10 11 12 # 1 1 1 1
97 1 10 9 14 13 # 1 1 1 1
98 1 10 9 14 15 # 1 1 1 1
99 1 10 9 52 51 # 1 1 1 1
100 1 10 9 52 55 # 1 1 1 1
101 1 9 14 13 18 # 1 1 1 1
102 1 9 14 13 56 # 1 1 1 1
103 1 9 14 15 12 # 1 1 1 1
104 1 9 14 15 16 # 1 1 1 1
105 1 14 9 10 11 # 1 1 1 1
106 1 14 9 52 51 # 1 1 1 1
107 1 14 9 52 55 # 1 1 1 1
108 1 9 52 51 48 # 1 1 1 1
109 1 9 52 51 50 # 1 1 1 1
110 1 9 52 55 54 # 1 1 1 1
111 1 9 52 55 56 # 1 1 1 1
112 1 52 9 10 11 # 1 1 1 1
113 1 52 9 14 13 # 1 1 1 1
114 1 52 9 14 15 # 1 1 1 1
115 1 10 11 12 15 # 1 1 1 1
116 1 10 11 12 49 # 1 1 1 1
117 1 11 12 15 14 # 1 1 1 1
118 1 11 12 15 16 # 1 1 1 1
119 1 11 12 49 50 # 1 1 1 1
120 1 11 12 49 54 # 1 1 1 1
121 1 12 15 14 13 # 1 1 1 1
122 1 12 15 16 19 # 1 1 1 1
123 1 12 15 16 53 # 1 1 1 1
124 1 15 12 49 50 # 1 1 1 1
125 1 15 12 49 54 # 1 1 1 1
126 1 12 49 50 45 # 1 1 1 1
127 1 12 49 50 51 # 1 1 1 1
128 1 12 49 54 53 # 1 1 1 1
129 1 12 49 54 55 # 1 1 1 1
130 1 49 12 15 14 # 1 1 1 1
131 1 49 12 15 16 # 1 1 1 1
132 1 13 14 15 16 # 1 1 1 1
133 1 14 13 18 17 # 1 1 1 1
134 1 14 13 18 19 # 1 1 1 1
135 1 14 13 56 55 # 1 1 1 1
136 1 14 13 56 59 # 1 1 1 1
137 1 13 18 17 22 # 1 1 1 1
138 1 13 18 17 60 # 1 1 1 1
139 1 13 18 19 16 # 1 1 1 1
140 1 13 18 19 20 # 1 1 1 1
141 1 18 13 14 15 # 1 1 1 1
142 1 18 13 56 55 # 1 1 1 1
143 1 18 13 56 59 # 1 1 1 1
144 1 13 56 55 52 # 1 1 1 1
145 1 13 56 55 54 # 1 1 1 1
146 1 13 56 59 58 # 1 1 1 1
147 1 13 56 59 60 # 1 1 1 1
148 1 56 13 14 15 # 1 1 1 1
149 1 56 13 18 17 # 1 1 1 1
150 1 56 13 18 19 # 1 1 1 1
151 1 14 15 16 19 # 1 1 1 1
152 1 14 15 16 53 # 1 1 1 1
153 1 15 16 19 18 # 1 1 1 1
154 1 15 16 19 20 # 1 1 1 1
155 1 15 16 53 54 # 1 1 1 1
156 1 15 16 53 58 # 1 1 1 1
157 1 16 19 18 17 # 1 1 1 1
158 1 16 19 20 23 # 1 1 1 1
159 1 16 19 20 57 # 1 1 1 1
160 1 19 16 53 54 # 1 1 1 1
161 1 19 16 53 58 # 1 1 1 1
162 1 16 53 54 49 # 1 1 1 1
163 1 16 53 54 55 # 1 1 1 1
164 1 16 53 58 57 # 1 1 1 1
165 1 16 53 58 59 # 1 1 1 1
166 1 53 16 19 18 # 1 1 1 1
167 1 53 16 19 20 # 1 1 1 1
168 1 17 18 19 20 # 1 1 1 1
169 1 18 17 22 21 # 1 1 1 1
170 1 18 17 22 23 # 1 1 1 1
171 1 18 17 60 59 # 1 1 1 1
172 1 18 17 60 63 # 1 1 1 1
173 1 17 22 21 26 # 1 1 1 1
174 1 17 22 21 64 # 1 1 1 1
175 1 17 22 23 20 # 1 1 1 1
176 1 17 22 23 24 # 1 1 1 1
177 1 22 17 18 19 # 1 1 1 1
178 1 22 17 60 59 # 1 1 1 1
179 1 22 17 60 63 # 1 1 1 1
180 1 17 60 59 56 # 1 1 1 1
181 1 17 60 59 58 # 1 1 1 1
182 1 17 60 63 62 # 1 1 1 1
183 1 17 60 63 64 # 1 1 1 1
184 1 60 17 18 19 # 1 1 1 1
185 1 60 17 22 21 # 1 1 1 1
186 1 60 17 22 23 # 1 1 1 1
187 1 18 19 20 23 # 1 1 1 1
188 1 18 19 20 57 # 1 1 1 1
189 1 19 20 23 22 # 1 1 1 1
190 1 19 20 23 24 # 1 1 1 1
191 1 19 20 57 58 # 1 1 1 1
192 1 19 20 57 62 # 1 1 1 1
193 1 20 23 22 21 # 1 1 1 1
194 1 20 23 24 27 # 1 1 1 1
195 1 20 23 24 61 # 1 1 1 1
196 1 23 20 57 58 # 1 1 1 1
197 1 23 20 57 62 # 1 1 1 1
198 1 20 57 58 53 # 1 1 1 1
199 1 20 57 58 59 # 1 1 1 1
200 1 20 57 62 61 # 1 1 1 1
201 1 20 57 62 63 # 1 1 1 1
202 1 57 20 23 22 # 1 1 1 1
203 1 57 20 23 24 # 1 1 1 1
204 1 21 22 23 24 # 1 1 1 1
205 1 22 21 26 25 # 1 1 1 1
206 1 22 21 26 27 # 1 1 1 1
207 1 22 21 64 63 # 1 1 1 1
208 1 22 21 64 67 # 1 1 1 1
209 1 21 26 25 30 # 1 1 1 1
210 1 21 26 25 68 # 1 1 1 1
211 1 21 26 27 24 # 1 1 1 1
212 1 21 26 27 28 # 1 1 1 1
213 1 26 21 22 23 # 1 1 1 1
214 1 26 21 64 63 # 1 1 1 1
215 1 26 21 64 67 # 1 1 1 1
216 1 21 64 63 60 # 1 1 1 1
217 1 21 64 63 62 # 1 1 1 1
218 1 21 64 67 66 # 1 1 1 1
219 1 21 64 67 68 # 1 1 1 1
220 1 64 21 22 23 # 1 1 1 1
221 1 64 21 26 25 # 1 1 1 1
222 1 64 21 26 27 # 1 1 1 1
223 1 22 23 24 27 # 1 1 1 1
224 1 22 23 24 61 # 1 1 1 1
225 1 23 24 27 26 # 1 1 1 1
226 1 23 24 27 28 # 1 1 1 1
227 1 23 24 61 62 # 1 1 1 1
228 1 23 24 61 66 # 1 1 1 1
229 1 24 27 26 25 # 1 1 1 1
230 1 24 27 28 31 # 1 1 1 1
231 1 24 27 28 65 # 1 1 1 1
232 1 27 24 61 62 # 1 1 1 1
233 1 27 24 61 66 # 1 1 1 1
234 1 24 61 62 57 # 1 1 1 1
235 1 24 61 62 63 # 1 1 1 1
236 1 24 61 66 65 # 1 1 1 1
237 1 24 61 66 67 # 1 1 1 1
238 1 61 24 27 26 # 1 1 1 1
239 1 61 24 27 28 # 1 1 1 1
240 1 25 26 27 28 # 1 1 1 1
241 1 26 25 30 29 # 1 1 1 1
242 1 26 25 30 31 # 1 1 1 1
243 1 26 25 68 67 # 1 1 1 1
244 1 26 25 68 71 # 1 1 1 1
245 1 25 30 29 34 # 1 1 1 1
246 1 25 30 29 72 # 1 1 1 1
247 1 25 30 31 28 # 1 1 1 1
248 1 25 30 31 32 # 1 1 1 1
249 1 30 25 26 27 # 1 1 1 1
250 1 30 25 68 67 # 1 1 1 1
251 1 30 25 68 71 # 1 1 1 1
252 1 25 68 67 64 # 1 1 1 1
253 1 25 68 67 66 # 1 1 1 1
254 1 25 68 71 70 # 1 1 1 1
255 1 25 68 71 72 # 1 1 1 1
256 1 68 25 26 27 # 1 1 1 1
257 1 68 25 30 29 # 1 1 1 1
258 1 68 25 30 31 # 1 1 1 1
259 1 26 27 28 31 # 1 1 1 1
260 1 26 27 28 65 # 1 1 1 1
261 1 27 28 31 30 # 1 1 1 1
262 1 27 28 31 32 # 1 1 1 1
263 1 27 28 65 66 # 1 1 1 1
264 1 27 28 65 70 # 1 1 1 1
265 1 28 31 30 29 # 1 1 1 1
266 1 28 31 32 35 # 1 1 1 1
267 1 28 31 32 69 # 1 1 1 1
268 1 31 28 65 66 # 1 1 1 1
269 1 31 28 65 70 # 1 1 1 1
270 1 28 65 66 61 # 1 1 1 1
271 1 28 65 66 67 # 1 1 1 1
272 1 28 65 70 69 # 1 1 1 1
273 1 28 65 70 71 # 1 1 1 1
274 1 65 28 31 30 # 1 1 1 1
275 1 65 28 31 32 # 1 1 1 1
276 1 29 30 31 32 # 1 1 1 1
277 1 30 29 34 33 # 1 1 1 1
278 1 30 29 34 35 # 1 1 1 1
279 1 30 29 72 71 # 1 1 1 1
280 1 30 29 72 75 # 1 1 1 1
281 1 29 34 33 38 # 1 1 1 1
282 1 29 34 33 76 # 1 1 1 1
283 1 29 34 35 32 # 1 1 1 1
284 1 29 34 35 36 # 1 1 1 1
285 1 34 29 30 31 # 1 1 1 1
286 1 34 29 72 71 # 1 1 1 1
287 1 34 29 72 75 # 1 1 1 1
288 1 29 72 71 68 # 1 1 1 1
289 1 29 72 71 70 # 1 1 1 1
290 1 29 72 75 74 # 1 1 1 1
291 1 29 72 75 76 # 1 1 1 1
292 1 72 29 30 31 # 1 1 1 1
293 1 72 29 34 33 # 1 1 1 1
294 1 72 29 34 35 # 1 1 1 1
295 1 30 31 32 35 # 1 1 1 1
296 1 30 31 32 69 # 1 1 1 1
297 1 31 32 35 34 # 1 1 1 1
298 1 31 32 35 36 # 1 1 1 1
299 1 31 32 69 70 # 1 1 1 1
300 1 31 32 69 74 # 1 1 1 1
301 1 32 35 34 33 # 1 1 1 1
302 1 32 35 36 39 # 1 1 1 1
303 1 32 35 36 73 # 1 1 1 1
304 1 35 32 69 70 # 1 1 1 1
305 1 35 32 69 74 # 1 1 1 1
306 1 32 69 70 65 # 1 1 1 1
307 1 32 69 70 71 # 1 1 1 1
308 1 32 69 74 73 # 1 1 1 1
309 1 32 69 74 75 # 1 1 1 1
310 1 69 32 35 34 # 1 1 1 1
311 1 69 32 35 36 # 1 1 1 1
312 1 33 34 35 36 # 1 1 1 1
313 1 34 33 38 37 # 1 1 1 1
314 1 34 33 38 39 # 1 1 1 1
315 1 34 33 76 75 # 1 1 1 1
316 1 34 33 76 79 # 1 1 1 1
317 1 33 38 37 80 # 1 1 1 1
318 1 33 38 39 36 # 1 1 1 1
319 1 33 38 39 40 # 1 1 1 1
320 1 38 33 34 35 # 1 1 1 1
321 1 38 33 76 75 # 1 1 1 1
322 1 38 33 76 79 # 1 1 1 1
323 1 33 76 75 72 # 1 1 1 1
324 1 33 76 75 74 # 1 1 1 1
325 1 33 76 79 78 # 1 1 1 1
326 1 33 76 79 80 # 1 1 1 1
327 1 76 33 34 35 # 1 1 1 1
328 1 76 33 38 37 # 1 1 1 1
329 1 76 33 38 39 # 1 1 1 1
330 1 34 35 36 39 # 1 1 1 1
331 1 34 35 36 73 # 1 1 1 1
332 1 35 36 39 38 # 1 1 1 1
333 1 35 36 39 40 # 1 1 1 1
334 1 35 36 73 74 # 1 1 1 1
335 1 35 36 73 78 # 1 1 1 1
336 1 36 39 38 37 # 1 1 1 1
337 1 36 39 40 77 # 1 1 1 1
338 1 39 36 73 74 # 1 1 1 1
339 1 39 36 73 78 # 1 1 1 1
340 1 36 73 74 69 # 1 1 1 1
341 1 36 73 74 75 # 1 1 1 1
342 1 36 73 78 77 # 1 1 1 1
343 1 36 73 78 79 # 1 1 1 1
344 1 73 36 39 38 # 1 1 1 1
345 1 73 36 39 40 # 1 1 1 1
346 1 37 38 39 40 # 1 1 1 1
347 1 38 37 80 43 # 1 1 1 1
348 1 38 37 80 79 # 1 1 1 1
349 1 37 80 43 42 # 1 1 1 1
350 1 37 80 43 44 # 1 1 1 1
351 1 37 80 79 76 # 1 1 1 1
352 1 37 80 79 78 # 1 1 1 1
353 1 80 37 38 39 # 1 1 1 1
354 1 38 39 40 77 # 1 1 1 1
355 1 39 40 77 42 # 1 1 1 1
356 1 39 40 77 78 # 1 1 1 1
357 1 40 77 42 41 # 1 1 1 1
358 1 40 77 42 43 # 1 1 1 1
359 1 40 77 78 73 # 1 1 1 1
360 1 40 77 78 79 # 1 1 1 1
361 1 41 42 43 44 # 1 1 1 1
362 1 41 42 43 80 # 1 1 1 1
363 1 41 42 77 78 # 1 1 1 1
364 1 42 41 46 45 # 1 1 1 1
365 1 42 41 46 47 # 1 1 1 1
366 1 41 46 45 50 # 1 1 1 1
367 1 41 46 47 44 # 1 1 1 1
368 1 41 46 47 48 # 1 1 1 1
369 1 46 41 42 43 # 1 1 1 1
370 1 46 41 42 77 # 1 1 1 1
371 1 42 43 44 47 # 1 1 1 1
372 1 42 43 80 79 # 1 1 1 1
373 1 43 42 77 78 # 1 1 1 1
374 1 42 77 78 73 # 1 1 1 1
375 1 42 77 78 79 # 1 1 1 1
376 1 77 42 43 44 # 1 1 1 1
377 1 77 42 43 80 # 1 1 1 1
378 1 43 44 47 46 # 1 1 1 1
379 1 43 44 47 48 # 1 1 1 1
380 1 44 43 80 79 # 1 1 1 1
381 1 43 80 79 76 # 1 1 1 1
382 1 43 80 79 78 # 1 1 1 1
383 1 80 43 44 47 # 1 1 1 1
384 1 44 47 46 45 # 1 1 1 1
385 1 44 47 48 51 # 1 1 1 1
386 1 45 46 47 48 # 1 1 1 1
387 1 46 45 50 49 # 1 1 1 1
388 1 46 45 50 51 # 1 1 1 1
389 1 45 50 49 54 # 1 1 1 1
390 1 45 50 51 48 # 1 1 1 1
391 1 45 50 51 52 # 1 1 1 1
392 1 50 45 46 47 # 1 1 1 1
393 1 46 47 48 51 # 1 1 1 1
394 1 47 48 51 50 # 1 1 1 1
395 1 47 48 51 52 # 1 1 1 1
396 1 48 51 50 49 # 1 1 1 1
397 1 48 51 52 55 # 1 1 1 1
398 1 49 50 51 52 # 1 1 1 1
399 1 50 49 54 53 # 1 1 1 1
400 1 50 49 54 55 # 1 1 1 1
401 1 49 54 53 58 # 1 1 1 1
402 1 49 54 55 52 # 1 1 1 1
403 1 49 54 55 56 # 1 1 1 1
404 1 54 49 50 51 # 1 1 1 1
405 1 50 51 52 55 # 1 1 1 1
406 1 51 52 55 54 # 1 1 1 1
407 1 51 52 55 56 # 1 1 1 1
408 1 52 55 54 53 # 1 1 1 1
409 1 52 55 56 59 # 1 1 1 1
410 1 53 54 55 56 # 1 1 1 1
411 1 54 53 58 57 # 1 1 1 1
412 1 54 53 58 59 # 1 1 1 1
413 1 53 58 57 62 # 1 1 1 1
414 1 53 58 59 56 # 1 1 1 1
415 1 53 58 59 60 # 1 1 1 1
416 1 58 53 54 55 # 1 1 1 1
417 1 54 55 56 59 # 1 1 1 1
418 1 55 56 59 58 # 1 1 1 1
419 1 55 56 59 60 # 1 1 1 1
420 1 56 59 58 57 # 1 1 1 1
421 1 56 59 60 63 # 1 1 1 1
422 1 57 58 59 60 # 1 1 1 1
423 1 58 57 62 61 # 1 1 1 1
424 1 58 57 62 63 # 1 1 1 1
425 1 57 62 61 66 # 1 1 1 1
426 1 57 62 63 60 # 1 1 1 1
427 1 57 62 63 64 # 1 1 1 1
428 1 62 57 58 59 # 1 1 1 1
429 1 58 59 60 63 # 1 1 1 1
430 1 59 60 63 62 # 1 1 1 1
431 1 59 60 63 64 # 1 1 1 1
432 1 60 63 62 61 # 1 1 1 1
433 1 60 63 64 67 # 1 1 1 1
434 1 61 62 63 64 # 1 1 1 1
435 1 62 61 66 65 # 1 1 1 1
436 1 62 61 66 67 # 1 1 1 1
437 1 61 66 65 70 # 1 1 1 1
438 1 61 66 67 64 # 1 1 1 1
439 1 61 66 67 68 # 1 1 1 1
440 1 66 61 62 63 # 1 1 1 1
441 1 62 63 64 67 # 1 1 1 1
442 1 63 64 67 66 # 1 1 1 1
443 1 63 64 67 68 # 1 1 1 1
444 1 64 67 66 65 # 1 1 1 1
445 1 64 67 68 71 # 1 1 1 1
446 1 65 66 67 68 # 1 1 1 1
447 1 66 65 70 69 # 1 1 1 1
448 1 66 65 70 71 # 1 1 1 1
449 1 65 70 69 74 # 1 1 1 1
450 1 65 70 71 68 # 1 1 1 1
451 1 65 70 71 72 # 1 1 1 1
452 1 70 65 66 67 # 1 1 1 1
453 1 66 67 68 71 # 1 1 1 1
454 1 67 68 71 70 # 1 1 1 1
455 1 67 68 71 72 # 1 1 1 1
456 1 68 71 70 69 # 1 1 1 1
457 1 68 71 72 75 # 1 1 1 1
458 1 69 70 71 72 # 1 1 1 1
459 1 70 69 74 73 # 1 1 1 1
460 1 70 69 74 75 # 1 1 1 1
461 1 69 74 73 78 # 1 1 1 1
462 1 69 74 75 72 # 1 1 1 1
463 1 69 74 75 76 # 1 1 1 1
464 1 74 69 70 71 # 1 1 1 1
465 1 70 71 72 75 # 1 1 1 1
466 1 71 72 75 74 # 1 1 1 1
467 1 71 72 75 76 # 1 1 1 1
468 1 72 75 74 73 # 1 1 1 1
469 1 72 75 76 79 # 1 1 1 1
470 1 73 74 75 76 # 1 1 1 1
471 1 74 73 78 77 # 1 1 1 1
472 1 74 73 78 79 # 1 1 1 1
473 1 73 78 79 76 # 1 1 1 1
474 1 73 78 79 80 # 1 1 1 1
475 1 78 73 74 75 # 1 1 1 1
476 1 74 75 76 79 # 1 1 1 1
477 1 75 76 79 78 # 1 1 1 1
478 1 75 76 79 80 # 1 1 1 1
479 1 76 79 78 77 # 1 1 1 1
480 1 77 78 79 80 # 1 1 1 1
