# LAMMPS data file

80 atoms
120 bonds

1 atom types
1 bond types

0.000000000      17.320508080     xlo xhi
0.000000000      6.000000000      ylo yhi
0.000000000      6.661000000      zlo zhi

Masses

1 1.000000000      # B

Atoms

1 1 1 1.000000000      0.866020000      0.000000000      0.000000000      # B
2 1 1 1.000000000      0.000000000      0.500000000      0.000000000      # B
3 1 1 1.000000000      0.000000000      1.500000000      0.000000000      # B
4 1 1 1.000000000      0.866020000      2.000000000      0.000000000      # B
5 1 1 1.000000000      2.598070808      0.000000000      0.000000000      # B
6 1 1 1.000000000      1.732050808      0.500000000      0.000000000      # B
7 1 1 1.000000000      1.732050808      1.500000000      0.000000000      # B
8 1 1 1.000000000      2.598070808      2.000000000      0.000000000      # B
9 1 1 1.000000000      4.330121616      0.000000000      0.000000000      # B
10 1 1 1.000000000      3.464101616      0.500000000      0.000000000      # B
11 1 1 1.000000000      3.464101616      1.500000000      0.000000000      # B
12 1 1 1.000000000      4.330121616      2.000000000      0.000000000      # B
13 1 1 1.000000000      6.062172424      0.000000000      0.000000000      # B
14 1 1 1.000000000      5.196152424      0.500000000      0.000000000      # B
15 1 1 1.000000000      5.196152424      1.500000000      0.000000000      # B
16 1 1 1.000000000      6.062172424      2.000000000      0.000000000      # B
17 1 1 1.000000000      7.794223232      0.000000000      0.000000000      # B
18 1 1 1.000000000      6.928203232      0.500000000      0.000000000      # B
19 1 1 1.000000000      6.928203232      1.500000000      0.000000000      # B
20 1 1 1.000000000      7.794223232      2.000000000      0.000000000      # B
21 1 1 1.000000000      9.526274040      0.000000000      0.000000000      # B
22 1 1 1.000000000      8.660254040      0.500000000      0.000000000      # B
23 1 1 1.000000000      8.660254040      1.500000000      0.000000000      # B
24 1 1 1.000000000      9.526274040      2.000000000      0.000000000      # B
25 1 1 1.000000000      11.258324848     0.000000000      0.000000000      # B
26 1 1 1.000000000      10.392304848     0.500000000      0.000000000      # B
27 1 1 1.000000000      10.392304848     1.500000000      0.000000000      # B
28 1 1 1.000000000      11.258324848     2.000000000      0.000000000      # B
29 1 1 1.000000000      12.990375656     0.000000000      0.000000000      # B
30 1 1 1.000000000      12.124355656     0.500000000      0.000000000      # B
31 1 1 1.000000000      12.124355656     1.500000000      0.000000000      # B
32 1 1 1.000000000      12.990375656     2.000000000      0.000000000      # B
33 1 1 1.000000000      14.722426464     0.000000000      0.000000000      # B
34 1 1 1.000000000      13.856406464     0.500000000      0.000000000      # B
35 1 1 1.000000000      13.856406464     1.500000000      0.000000000      # B
36 1 1 1.000000000      14.722426464     2.000000000      0.000000000      # B
37 1 1 1.000000000      16.454477272     0.000000000      0.000000000      # B
38 1 1 1.000000000      15.588457272     0.500000000      0.000000000      # B
39 1 1 1.000000000      15.588457272     1.500000000      0.000000000      # B
40 1 1 1.000000000      16.454477272     2.000000000      0.000000000      # B
41 1 1 1.000000000      0.866020000      3.000000000      0.000000000      # B
42 1 1 1.000000000      0.000000000      3.500000000      0.000000000      # B
43 1 1 1.000000000      0.000000000      4.500000000      0.000000000      # B
44 1 1 1.000000000      0.866020000      5.000000000      0.000000000      # B
45 1 1 1.000000000      2.598070808      3.000000000      0.000000000      # B
46 1 1 1.000000000      1.732050808      3.500000000      0.000000000      # B
47 1 1 1.000000000      1.732050808      4.500000000      0.000000000      # B
48 1 1 1.000000000      2.598070808      5.000000000      0.000000000      # B
49 1 1 1.000000000      4.330121616      3.000000000      0.000000000      # B
50 1 1 1.000000000      3.464101616      3.500000000      0.000000000      # B
51 1 1 1.000000000      3.464101616      4.500000000      0.000000000      # B
52 1 1 1.000000000      4.330121616      5.000000000      0.000000000      # B
53 1 1 1.000000000      6.062172424      3.000000000      0.000000000      # B
54 1 1 1.000000000      5.196152424      3.500000000      0.000000000      # B
55 1 1 1.000000000      5.196152424      4.500000000      0.000000000      # B
56 1 1 1.000000000      6.062172424      5.000000000      0.000000000      # B
57 1 1 1.000000000      7.794223232      3.000000000      0.000000000      # B
58 1 1 1.000000000      6.928203232      3.500000000      0.000000000      # B
59 1 1 1.000000000      6.928203232      4.500000000      0.000000000      # B
60 1 1 1.000000000      7.794223232      5.000000000      0.000000000      # B
61 1 1 1.000000000      9.526274040      3.000000000      0.000000000      # B
62 1 1 1.000000000      8.660254040      3.500000000      0.000000000      # B
63 1 1 1.000000000      8.660254040      4.500000000      0.000000000      # B
64 1 1 1.000000000      9.526274040      5.000000000      0.000000000      # B
65 1 1 1.000000000      11.258324848     3.000000000      0.000000000      # B
66 1 1 1.000000000      10.392304848     3.500000000      0.000000000      # B
67 1 1 1.000000000      10.392304848     4.500000000      0.000000000      # B
68 1 1 1.000000000      11.258324848     5.000000000      0.000000000      # B
69 1 1 1.000000000      12.990375656     3.000000000      0.000000000      # B
70 1 1 1.000000000      12.124355656     3.500000000      0.000000000      # B
71 1 1 1.000000000      12.124355656     4.500000000      0.000000000      # B
72 1 1 1.000000000      12.990375656     5.000000000      0.000000000      # B
73 1 1 1.000000000      14.722426464     3.000000000      0.000000000      # B
74 1 1 1.000000000      13.856406464     3.500000000      0.000000000      # B
75 1 1 1.000000000      13.856406464     4.500000000      0.000000000      # B
76 1 1 1.000000000      14.722426464     5.000000000      0.000000000      # B
77 1 1 1.000000000      16.454477272     3.000000000      0.000000000      # B
78 1 1 1.000000000      15.588457272     3.500000000      0.000000000      # B
79 1 1 1.000000000      15.588457272     4.500000000      0.000000000      # B
80 1 1 1.000000000      16.454477272     5.000000000      0.000000000      # B

Bonds

1 1 1 2 # 1 1
2 1 1 6 # 1 1
3 1 1 44 # 1 1
4 1 2 3 # 1 1
5 1 2 37 # 1 1
6 1 3 4 # 1 1
7 1 3 40 # 1 1
8 1 4 7 # 1 1
9 1 4 41 # 1 1
10 1 5 6 # 1 1
11 1 5 10 # 1 1
12 1 5 48 # 1 1
13 1 6 7 # 1 1
14 1 7 8 # 1 1
15 1 8 11 # 1 1
16 1 8 45 # 1 1
17 1 9 10 # 1 1
18 1 9 14 # 1 1
19 1 9 52 # 1 1
20 1 10 11 # 1 1
21 1 11 12 # 1 1
22 1 12 15 # 1 1
23 1 12 49 # 1 1
24 1 13 14 # 1 1
25 1 13 18 # 1 1
26 1 13 56 # 1 1
27 1 14 15 # 1 1
28 1 15 16 # 1 1
29 1 16 19 # 1 1
30 1 16 53 # 1 1
31 1 17 18 # 1 1
32 1 17 22 # 1 1
33 1 17 60 # 1 1
34 1 18 19 # 1 1
35 1 19 20 # 1 1
36 1 20 23 # 1 1
37 1 20 57 # 1 1
38 1 21 22 # 1 1
39 1 21 26 # 1 1
40 1 21 64 # 1 1
41 1 22 23 # 1 1
42 1 23 24 # 1 1
43 1 24 27 # 1 1
44 1 24 61 # 1 1
45 1 25 26 # 1 1
46 1 25 30 # 1 1
47 1 25 68 # 1 1
48 1 26 27 # 1 1
49 1 27 28 # 1 1
50 1 28 31 # 1 1
51 1 28 65 # 1 1
52 1 29 30 # 1 1
53 1 29 34 # 1 1
54 1 29 72 # 1 1
55 1 30 31 # 1 1
56 1 31 32 # 1 1
57 1 32 35 # 1 1
58 1 32 69 # 1 1
59 1 33 34 # 1 1
60 1 33 38 # 1 1
61 1 33 76 # 1 1
62 1 34 35 # 1 1
63 1 35 36 # 1 1
64 1 36 39 # 1 1
65 1 36 73 # 1 1
66 1 37 38 # 1 1
67 1 37 80 # 1 1
68 1 38 39 # 1 1
69 1 39 40 # 1 1
70 1 40 77 # 1 1
71 1 41 42 # 1 1
72 1 41 46 # 1 1
73 1 42 43 # 1 1
74 1 42 77 # 1 1
75 1 43 44 # 1 1
76 1 43 80 # 1 1
77 1 44 47 # 1 1
78 1 45 46 # 1 1
79 1 45 50 # 1 1
80 1 46 47 # 1 1
81 1 47 48 # 1 1
82 1 48 51 # 1 1
83 1 49 50 # 1 1
84 1 49 54 # 1 1
85 1 50 51 # 1 1
86 1 51 52 # 1 1
87 1 52 55 # 1 1
88 1 53 54 # 1 1
89 1 53 58 # 1 1
90 1 54 55 # 1 1
91 1 55 56 # 1 1
92 1 56 59 # 1 1
93 1 57 58 # 1 1
94 1 57 62 # 1 1
95 1 58 59 # 1 1
96 1 59 60 # 1 1
97 1 60 63 # 1 1
98 1 61 62 # 1 1
99 1 61 66 # 1 1
100 1 62 63 # 1 1
101 1 63 64 # 1 1
102 1 64 67 # 1 1
103 1 65 66 # 1 1
104 1 65 70 # 1 1
105 1 66 67 # 1 1
106 1 67 68 # 1 1
107 1 68 71 # 1 1
108 1 69 70 # 1 1
109 1 69 74 # 1 1
110 1 70 71 # 1 1
111 1 71 72 # 1 1
112 1 72 75 # 1 1
113 1 73 74 # 1 1
114 1 73 78 # 1 1
115 1 74 75 # 1 1
116 1 75 76 # 1 1
117 1 76 79 # 1 1
118 1 77 78 # 1 1
119 1 78 79 # 1 1
120 1 79 80 # 1 1
