# LAMMPS data file

80 atoms
120 bonds
240 angles
480 dihedrals

1 atom types
1 bond types
1 angle types
1 dihedral types

0.000000000      17.320508080     xlo xhi
0.000000000      6.000000000      ylo yhi
0.000000000      6.661000000      zlo zhi

Masses

1 1.000000000      # B

Atoms

1 1 1 1.000000000      0.866020000      0.000000000      0.000000000      # B
2 1 1 1.000000000      0.000000000      0.500000000      0.000000000      # B
3 1 1 1.000000000      0.000000000      1.500000000      0.000000000      # B
4 1 1 1.000000000      0.866020000      2.000000000      0.000000000      # B
5 1 1 1.000000000      2.598070808      0.000000000      0.000000000      # B
6 1 1 1.000000000      1.732050808      0.500000000      0.000000000      # B
7 1 1 1.000000000      1.732050808      1.500000000      0.000000000      # B
8 1 1 1.000000000      2.598070808      2.000000000      0.000000000      # B
9 1 1 1.000000000      4.330121616      0.000000000      0.000000000      # B
10 1 1 1.000000000      3.464101616      0.500000000      0.000000000      # B
11 1 1 1.000000000      3.464101616      1.500000000      0.000000000      # B
12 1 1 1.000000000      4.330121616      2.000000000      0.000000000      # B
13 1 1 1.000000000      6.062172424      0.000000000      0.000000000      # B
14 1 1 1.000000000      5.196152424      0.500000000      0.000000000      # B
15 1 1 1.000000000      5.196152424      1.500000000      0.000000000      # B
16 1 1 1.000000000      6.062172424      2.000000000      0.000000000      # B
17 1 1 1.000000000      7.794223232      0.000000000      0.000000000      # B
18 1 1 1.000000000      6.928203232      0.500000000      0.000000000      # B
19 1 1 1.000000000      6.928203232      1.500000000      0.000000000      # B
20 1 1 1.000000000      7.794223232      2.000000000      0.000000000      # B
21 1 1 1.000000000      9.526274040      0.000000000      0.000000000      # B
22 1 1 1.000000000      8.660254040      0.500000000      0.000000000      # B
23 1 1 1.000000000      8.660254040      1.500000000      0.000000000      # B
24 1 1 1.000000000      9.526274040      2.000000000      0.000000000      # B
25 1 1 1.000000000      11.258324848     0.000000000      0.000000000      # B
26 1 1 1.000000000      10.392304848     0.500000000      0.000000000      # B
27 1 1 1.000000000      10.392304848     1.500000000      0.000000000      # B
28 1 1 1.000000000      11.258324848     2.000000000      0.000000000      # B
29 1 1 1.000000000      12.990375656     0.000000000      0.000000000      # B
30 1 1 1.000000000      12.124355656     0.500000000      0.000000000      # B
31 1 1 1.000000000      12.124355656     1.500000000      0.000000000      # B
32 1 1 1.000000000      12.990375656     2.000000000      0.000000000      # B
33 1 1 1.000000000      14.722426464     0.000000000      0.000000000      # B
34 1 1 1.000000000      13.856406464     0.500000000      0.000000000      # B
35 1 1 1.000000000      13.856406464     1.500000000      0.000000000      # B
36 1 1 1.000000000      14.722426464     2.000000000      0.000000000      # B
37 1 1 1.000000000      16.454477272     0.000000000      0.000000000      # B
38 1 1 1.000000000      15.588457272     0.500000000      0.000000000      # B
39 1 1 1.000000000      15.588457272     1.500000000      0.000000000      # B
40 1 1 1.000000000      16.454477272     2.000000000      0.000000000      # B
41 1 1 1.000000000      0.866020000      3.000000000      0.000000000      # B
42 1 1 1.000000000      0.000000000      3.500000000      0.000000000      # B
43 1 1 1.000000000      0.000000000      4.500000000      0.000000000      # B
44 1 1 1.000000000      0.866020000      5.000000000      0.000000000      # B
45 1 1 1.000000000      2.598070808      3.000000000      0.000000000      # B
46 1 1 1.000000000      1.732050808      3.500000000      0.000000000      # B
47 1 1 1.000000000      1.732050808      4.500000000      0.000000000      # B
48 1 1 1.000000000      2.598070808      5.000000000      0.000000000      # B
49 1 1 1.000000000      4.330121616      3.000000000      0.000000000      # B
50 1 1 1.000000000      3.464101616      3.500000000      0.000000000      # B
51 1 1 1.000000000      3.464101616      4.500000000      0.000000000      # B
52 1 1 1.000000000      4.330121616      5.000000000      0.000000000      # B
53 1 1 1.000000000      6.062172424      3.000000000      0.000000000      # B
54 1 1 1.000000000      5.196152424      3.500000000      0.000000000      # B
55 1 1 1.000000000      5.196152424      4.500000000      0.000000000      # B
56 1 1 1.000000000      6.062172424      5.000000000      0.000000000      # B
57 1 1 1.000000000      7.794223232      3.000000000      0.000000000      # B
58 1 1 1.000000000      6.928203232      3.500000000      0.000000000      # B
59 1 1 1.000000000      6.928203232      4.500000000      0.000000000      # B
60 1 1 1.000000000      7.794223232      5.000000000      0.000000000      # B
61 1 1 1.000000000      9.526274040      3.000000000      0.000000000      # B
62 1 1 1.000000000      8.660254040      3.500000000      0.000000000      # B
63 1 1 1.000000000      8.660254040      4.500000000      0.000000000      # B
64 1 1 1.000000000      9.526274040      5.000000000      0.000000000      # B
65 1 1 1.000000000      11.258324848     3.000000000      0.000000000      # B
66 1 1 1.000000000      10.392304848     3.500000000      0.000000000      # B
67 1 1 1.000000000      10.392304848     4.500000000      0.000000000      # B
68 1 1 1.000000000      11.258324848     5.000000000      0.000000000      # B
69 1 1 1.000000000      12.990375656     3.000000000      0.000000000      # B
70 1 1 1.000000000      12.124355656     3.500000000      0.000000000      # B
71 1 1 1.000000000      12.124355656     4.500000000      0.000000000      # B
72 1 1 1.000000000      12.990375656     5.000000000      0.000000000      # B
73 1 1 1.000000000      14.722426464     3.000000000      0.000000000      # B
74 1 1 1.000000000      13.856406464     3.500000000      0.000000000      # B
75 1 1 1.000000000      13.856406464     4.500000000      0.000000000      # B
76 1 1 1.000000000      14.722426464     5.000000000      0.000000000      # B
77 1 1 1.000000000      16.454477272     3.000000000      0.000000000      # B
78 1 1 1.000000000      15.588457272     3.500000000      0.000000000      # B
79 1 1 1.000000000      15.588457272     4.500000000      0.000000000      # B
80 1 1 1.000000000      16.454477272     5.000000000      0.000000000      # B

Bonds

1 1 1 2 # B B
2 1 1 6 # B B
3 1 1 44 # B B
4 1 2 3 # B B
5 1 2 37 # B B
6 1 3 4 # B B
7 1 3 40 # B B
8 1 4 7 # B B
9 1 4 41 # B B
10 1 5 6 # B B
11 1 5 10 # B B
12 1 5 48 # B B
13 1 6 7 # B B
14 1 7 8 # B B
15 1 8 11 # B B
16 1 8 45 # B B
17 1 9 10 # B B
18 1 9 14 # B B
19 1 9 52 # B B
20 1 10 11 # B B
21 1 11 12 # B B
22 1 12 15 # B B
23 1 12 49 # B B
24 1 13 14 # B B
25 1 13 18 # B B
26 1 13 56 # B B
27 1 14 15 # B B
28 1 15 16 # B B
29 1 16 19 # B B
30 1 16 53 # B B
31 1 17 18 # B B
32 1 17 22 # B B
33 1 17 60 # B B
34 1 18 19 # B B
35 1 19 20 # B B
36 1 20 23 # B B
37 1 20 57 # B B
38 1 21 22 # B B
39 1 21 26 # B B
40 1 21 64 # B B
41 1 22 23 # B B
42 1 23 24 # B B
43 1 24 27 # B B
44 1 24 61 # B B
45 1 25 26 # B B
46 1 25 30 # B B
47 1 25 68 # B B
48 1 26 27 # B B
49 1 27 28 # B B
50 1 28 31 # B B
51 1 28 65 # B B
52 1 29 30 # B B
53 1 29 34 # B B
54 1 29 72 # B B
55 1 30 31 # B B
56 1 31 32 # B B
57 1 32 35 # B B
58 1 32 69 # B B
59 1 33 34 # B B
60 1 33 38 # B B
61 1 33 76 # B B
62 1 34 35 # B B
63 1 35 36 # B B
64 1 36 39 # B B
65 1 36 73 # B B
66 1 37 38 # B B
67 1 37 80 # B B
68 1 38 39 # B B
69 1 39 40 # B B
70 1 40 77 # B B
71 1 41 42 # B B
72 1 41 46 # B B
73 1 42 43 # B B
74 1 42 77 # B B
75 1 43 44 # B B
76 1 43 80 # B B
77 1 44 47 # B B
78 1 45 46 # B B
79 1 45 50 # B B
80 1 46 47 # B B
81 1 47 48 # B B
82 1 48 51 # B B
83 1 49 50 # B B
84 1 49 54 # B B
85 1 50 51 # B B
86 1 51 52 # B B
87 1 52 55 # B B
88 1 53 54 # B B
89 1 53 58 # B B
90 1 54 55 # B B
91 1 55 56 # B B
92 1 56 59 # B B
93 1 57 58 # B B
94 1 57 62 # B B
95 1 58 59 # B B
96 1 59 60 # B B
97 1 60 63 # B B
98 1 61 62 # B B
99 1 61 66 # B B
100 1 62 63 # B B
101 1 63 64 # B B
102 1 64 67 # B B
103 1 65 66 # B B
104 1 65 70 # B B
105 1 66 67 # B B
106 1 67 68 # B B
107 1 68 71 # B B
108 1 69 70 # B B
109 1 69 74 # B B
110 1 70 71 # B B
111 1 71 72 # B B
112 1 72 75 # B B
113 1 73 74 # B B
114 1 73 78 # B B
115 1 74 75 # B B
116 1 75 76 # B B
117 1 76 79 # B B
118 1 77 78 # B B
119 1 78 79 # B B
120 1 79 80 # B B

Angles

1 1 1 2 3 # B B B
2 1 1 2 37 # B B B
3 1 2 1 6 # B B B
4 1 2 1 44 # B B B
5 1 1 6 5 # B B B
6 1 1 6 7 # B B B
7 1 6 1 44 # B B B
8 1 1 44 43 # B B B
9 1 1 44 47 # B B B
10 1 2 3 4 # B B B
11 1 2 3 40 # B B B
12 1 3 2 37 # B B B
13 1 2 37 38 # B B B
14 1 2 37 80 # B B B
15 1 3 4 7 # B B B
16 1 3 4 41 # B B B
17 1 4 3 40 # B B B
18 1 3 40 39 # B B B
19 1 3 40 77 # B B B
20 1 4 7 6 # B B B
21 1 4 7 8 # B B B
22 1 7 4 41 # B B B
23 1 4 41 42 # B B B
24 1 4 41 46 # B B B
25 1 5 6 7 # B B B
26 1 6 5 10 # B B B
27 1 6 5 48 # B B B
28 1 5 10 9 # B B B
29 1 5 10 11 # B B B
30 1 10 5 48 # B B B
31 1 5 48 47 # B B B
32 1 5 48 51 # B B B
33 1 6 7 8 # B B B
34 1 7 8 11 # B B B
35 1 7 8 45 # B B B
36 1 8 11 10 # B B B
37 1 8 11 12 # B B B
38 1 11 8 45 # B B B
39 1 8 45 46 # B B B
40 1 8 45 50 # B B B
41 1 9 10 11 # B B B
42 1 10 9 14 # B B B
43 1 10 9 52 # B B B
44 1 9 14 13 # B B B
45 1 9 14 15 # B B B
46 1 14 9 52 # B B B
47 1 9 52 51 # B B B
48 1 9 52 55 # B B B
49 1 10 11 12 # B B B
50 1 11 12 15 # B B B
51 1 11 12 49 # B B B
52 1 12 15 14 # B B B
53 1 12 15 16 # B B B
54 1 15 12 49 # B B B
55 1 12 49 50 # B B B
56 1 12 49 54 # B B B
57 1 13 14 15 # B B B
58 1 14 13 18 # B B B
59 1 14 13 56 # B B B
60 1 13 18 17 # B B B
61 1 13 18 19 # B B B
62 1 18 13 56 # B B B
63 1 13 56 55 # B B B
64 1 13 56 59 # B B B
65 1 14 15 16 # B B B
66 1 15 16 19 # B B B
67 1 15 16 53 # B B B
68 1 16 19 18 # B B B
69 1 16 19 20 # B B B
70 1 19 16 53 # B B B
71 1 16 53 54 # B B B
72 1 16 53 58 # B B B
73 1 17 18 19 # B B B
74 1 18 17 22 # B B B
75 1 18 17 60 # B B B
76 1 17 22 21 # B B B
77 1 17 22 23 # B B B
78 1 22 17 60 # B B B
79 1 17 60 59 # B B B
80 1 17 60 63 # B B B
81 1 18 19 20 # B B B
82 1 19 20 23 # B B B
83 1 19 20 57 # B B B
84 1 20 23 22 # B B B
85 1 20 23 24 # B B B
86 1 23 20 57 # B B B
87 1 20 57 58 # B B B
88 1 20 57 62 # B B B
89 1 21 22 23 # B B B
90 1 22 21 26 # B B B
91 1 22 21 64 # B B B
92 1 21 26 25 # B B B
93 1 21 26 27 # B B B
94 1 26 21 64 # B B B
95 1 21 64 63 # B B B
96 1 21 64 67 # B B B
97 1 22 23 24 # B B B
98 1 23 24 27 # B B B
99 1 23 24 61 # B B B
100 1 24 27 26 # B B B
101 1 24 27 28 # B B B
102 1 27 24 61 # B B B
103 1 24 61 62 # B B B
104 1 24 61 66 # B B B
105 1 25 26 27 # B B B
106 1 26 25 30 # B B B
107 1 26 25 68 # B B B
108 1 25 30 29 # B B B
109 1 25 30 31 # B B B
110 1 30 25 68 # B B B
111 1 25 68 67 # B B B
112 1 25 68 71 # B B B
113 1 26 27 28 # B B B
114 1 27 28 31 # B B B
115 1 27 28 65 # B B B
116 1 28 31 30 # B B B
117 1 28 31 32 # B B B
118 1 31 28 65 # B B B
119 1 28 65 66 # B B B
120 1 28 65 70 # B B B
121 1 29 30 31 # B B B
122 1 30 29 34 # B B B
123 1 30 29 72 # B B B
124 1 29 34 33 # B B B
125 1 29 34 35 # B B B
126 1 34 29 72 # B B B
127 1 29 72 71 # B B B
128 1 29 72 75 # B B B
129 1 30 31 32 # B B B
130 1 31 32 35 # B B B
131 1 31 32 69 # B B B
132 1 32 35 34 # B B B
133 1 32 35 36 # B B B
134 1 35 32 69 # B B B
135 1 32 69 70 # B B B
136 1 32 69 74 # B B B
137 1 33 34 35 # B B B
138 1 34 33 38 # B B B
139 1 34 33 76 # B B B
140 1 33 38 37 # B B B
141 1 33 38 39 # B B B
142 1 38 33 76 # B B B
143 1 33 76 75 # B B B
144 1 33 76 79 # B B B
145 1 34 35 36 # B B B
146 1 35 36 39 # B B B
147 1 35 36 73 # B B B
148 1 36 39 38 # B B B
149 1 36 39 40 # B B B
150 1 39 36 73 # B B B
151 1 36 73 74 # B B B
152 1 36 73 78 # B B B
153 1 37 38 39 # B B B
154 1 38 37 80 # B B B
155 1 37 80 43 # B B B
156 1 37 80 79 # B B B
157 1 38 39 40 # B B B
158 1 39 40 77 # B B B
159 1 40 77 42 # B B B
160 1 40 77 78 # B B B
161 1 41 42 43 # B B B
162 1 41 42 77 # B B B
163 1 42 41 46 # B B B
164 1 41 46 45 # B B B
165 1 41 46 47 # B B B
166 1 42 43 44 # B B B
167 1 42 43 80 # B B B
168 1 43 42 77 # B B B
169 1 42 77 78 # B B B
170 1 43 44 47 # B B B
171 1 44 43 80 # B B B
172 1 43 80 79 # B B B
173 1 44 47 46 # B B B
174 1 44 47 48 # B B B
175 1 45 46 47 # B B B
176 1 46 45 50 # B B B
177 1 45 50 49 # B B B
178 1 45 50 51 # B B B
179 1 46 47 48 # B B B
180 1 47 48 51 # B B B
181 1 48 51 50 # B B B
182 1 48 51 52 # B B B
183 1 49 50 51 # B B B
184 1 50 49 54 # B B B
185 1 49 54 53 # B B B
186 1 49 54 55 # B B B
187 1 50 51 52 # B B B
188 1 51 52 55 # B B B
189 1 52 55 54 # B B B
190 1 52 55 56 # B B B
191 1 53 54 55 # B B B
192 1 54 53 58 # B B B
193 1 53 58 57 # B B B
194 1 53 58 59 # B B B
195 1 54 55 56 # B B B
196 1 55 56 59 # B B B
197 1 56 59 58 # B B B
198 1 56 59 60 # B B B
199 1 57 58 59 # B B B
200 1 58 57 62 # B B B
201 1 57 62 61 # B B B
202 1 57 62 63 # B B B
203 1 58 59 60 # B B B
204 1 59 60 63 # B B B
205 1 60 63 62 # B B B
206 1 60 63 64 # B B B
207 1 61 62 63 # B B B
208 1 62 61 66 # B B B
209 1 61 66 65 # B B B
210 1 61 66 67 # B B B
211 1 62 63 64 # B B B
212 1 63 64 67 # B B B
213 1 64 67 66 # B B B
214 1 64 67 68 # B B B
215 1 65 66 67 # B B B
216 1 66 65 70 # B B B
217 1 65 70 69 # B B B
218 1 65 70 71 # B B B
219 1 66 67 68 # B B B
220 1 67 68 71 # B B B
221 1 68 71 70 # B B B
222 1 68 71 72 # B B B
223 1 69 70 71 # B B B
224 1 70 69 74 # B B B
225 1 69 74 73 # B B B
226 1 69 74 75 # B B B
227 1 70 71 72 # B B B
228 1 71 72 75 # B B B
229 1 72 75 74 # B B B
230 1 72 75 76 # B B B
231 1 73 74 75 # B B B
232 1 74 73 78 # B B B
233 1 73 78 77 # B B B
234 1 73 78 79 # B B B
235 1 74 75 76 # B B B
236 1 75 76 79 # B B B
237 1 76 79 78 # B B B
238 1 76 79 80 # B B B
239 1 77 78 79 # B B B
240 1 78 79 80 # B B B

Dihedrals

1 1 1 2 3 4 # B B B B
2 1 1 2 3 40 # B B B B
3 1 1 2 37 38 # B B B B
4 1 1 2 37 80 # B B B B
5 1 2 1 6 5 # B B B B
6 1 2 1 6 7 # B B B B
7 1 2 1 44 43 # B B B B
8 1 2 1 44 47 # B B B B
9 1 1 6 5 10 # B B B B
10 1 1 6 5 48 # B B B B
11 1 1 6 7 4 # B B B B
12 1 1 6 7 8 # B B B B
13 1 6 1 2 3 # B B B B
14 1 6 1 2 37 # B B B B
15 1 6 1 44 43 # B B B B
16 1 6 1 44 47 # B B B B
17 1 1 44 43 42 # B B B B
18 1 1 44 43 80 # B B B B
19 1 1 44 47 46 # B B B B
20 1 1 44 47 48 # B B B B
21 1 44 1 2 3 # B B B B
22 1 44 1 2 37 # B B B B
23 1 44 1 6 5 # B B B B
24 1 44 1 6 7 # B B B B
25 1 2 3 4 7 # B B B B
26 1 2 3 4 41 # B B B B
27 1 2 3 40 39 # B B B B
28 1 2 3 40 77 # B B B B
29 1 3 2 37 38 # B B B B
30 1 3 2 37 80 # B B B B
31 1 2 37 38 33 # B B B B
32 1 2 37 38 39 # B B B B
33 1 2 37 80 43 # B B B B
34 1 2 37 80 79 # B B B B
35 1 37 2 3 4 # B B B B
36 1 37 2 3 40 # B B B B
37 1 3 4 7 6 # B B B B
38 1 3 4 7 8 # B B B B
39 1 3 4 41 42 # B B B B
40 1 3 4 41 46 # B B B B
41 1 4 3 40 39 # B B B B
42 1 4 3 40 77 # B B B B
43 1 3 40 39 36 # B B B B
44 1 3 40 39 38 # B B B B
45 1 3 40 77 42 # B B B B
46 1 3 40 77 78 # B B B B
47 1 40 3 4 7 # B B B B
48 1 40 3 4 41 # B B B B
49 1 4 7 6 5 # B B B B
50 1 4 7 8 11 # B B B B
51 1 4 7 8 45 # B B B B
52 1 7 4 41 42 # B B B B
53 1 7 4 41 46 # B B B B
54 1 4 41 42 43 # B B B B
55 1 4 41 42 77 # B B B B
56 1 4 41 46 45 # B B B B
57 1 4 41 46 47 # B B B B
58 1 41 4 7 6 # B B B B
59 1 41 4 7 8 # B B B B
60 1 5 6 7 8 # B B B B
61 1 6 5 10 9 # B B B B
62 1 6 5 10 11 # B B B B
63 1 6 5 48 47 # B B B B
64 1 6 5 48 51 # B B B B
65 1 5 10 9 14 # B B B B
66 1 5 10 9 52 # B B B B
67 1 5 10 11 8 # B B B B
68 1 5 10 11 12 # B B B B
69 1 10 5 6 7 # B B B B
70 1 10 5 48 47 # B B B B
71 1 10 5 48 51 # B B B B
72 1 5 48 47 44 # B B B B
73 1 5 48 47 46 # B B B B
74 1 5 48 51 50 # B B B B
75 1 5 48 51 52 # B B B B
76 1 48 5 6 7 # B B B B
77 1 48 5 10 9 # B B B B
78 1 48 5 10 11 # B B B B
79 1 6 7 8 11 # B B B B
80 1 6 7 8 45 # B B B B
81 1 7 8 11 10 # B B B B
82 1 7 8 11 12 # B B B B
83 1 7 8 45 46 # B B B B
84 1 7 8 45 50 # B B B B
85 1 8 11 10 9 # B B B B
86 1 8 11 12 15 # B B B B
87 1 8 11 12 49 # B B B B
88 1 11 8 45 46 # B B B B
89 1 11 8 45 50 # B B B B
90 1 8 45 46 41 # B B B B
91 1 8 45 46 47 # B B B B
92 1 8 45 50 49 # B B B B
93 1 8 45 50 51 # B B B B
94 1 45 8 11 10 # B B B B
95 1 45 8 11 12 # B B B B
96 1 9 10 11 12 # B B B B
97 1 10 9 14 13 # B B B B
98 1 10 9 14 15 # B B B B
99 1 10 9 52 51 # B B B B
100 1 10 9 52 55 # B B B B
101 1 9 14 13 18 # B B B B
102 1 9 14 13 56 # B B B B
103 1 9 14 15 12 # B B B B
104 1 9 14 15 16 # B B B B
105 1 14 9 10 11 # B B B B
106 1 14 9 52 51 # B B B B
107 1 14 9 52 55 # B B B B
108 1 9 52 51 48 # B B B B
109 1 9 52 51 50 # B B B B
110 1 9 52 55 54 # B B B B
111 1 9 52 55 56 # B B B B
112 1 52 9 10 11 # B B B B
113 1 52 9 14 13 # B B B B
114 1 52 9 14 15 # B B B B
115 1 10 11 12 15 # B B B B
116 1 10 11 12 49 # B B B B
117 1 11 12 15 14 # B B B B
118 1 11 12 15 16 # B B B B
119 1 11 12 49 50 # B B B B
120 1 11 12 49 54 # B B B B
121 1 12 15 14 13 # B B B B
122 1 12 15 16 19 # B B B B
123 1 12 15 16 53 # B B B B
124 1 15 12 49 50 # B B B B
125 1 15 12 49 54 # B B B B
126 1 12 49 50 45 # B B B B
127 1 12 49 50 51 # B B B B
128 1 12 49 54 53 # B B B B
129 1 12 49 54 55 # B B B B
130 1 49 12 15 14 # B B B B
131 1 49 12 15 16 # B B B B
132 1 13 14 15 16 # B B B B
133 1 14 13 18 17 # B B B B
134 1 14 13 18 19 # B B B B
135 1 14 13 56 55 # B B B B
136 1 14 13 56 59 # B B B B
137 1 13 18 17 22 # B B B B
138 1 13 18 17 60 # B B B B
139 1 13 18 19 16 # B B B B
140 1 13 18 19 20 # B B B B
141 1 18 13 14 15 # B B B B
142 1 18 13 56 55 # B B B B
143 1 18 13 56 59 # B B B B
144 1 13 56 55 52 # B B B B
145 1 13 56 55 54 # B B B B
146 1 13 56 59 58 # B B B B
147 1 13 56 59 60 # B B B B
148 1 56 13 14 15 # B B B B
149 1 56 13 18 17 # B B B B
150 1 56 13 18 19 # B B B B
151 1 14 15 16 19 # B B B B
152 1 14 15 16 53 # B B B B
153 1 15 16 19 18 # B B B B
154 1 15 16 19 20 # B B B B
155 1 15 16 53 54 # B B B B
156 1 15 16 53 58 # B B B B
157 1 16 19 18 17 # B B B B
158 1 16 19 20 23 # B B B B
159 1 16 19 20 57 # B B B B
160 1 19 16 53 54 # B B B B
161 1 19 16 53 58 # B B B B
162 1 16 53 54 49 # B B B B
163 1 16 53 54 55 # B B B B
164 1 16 53 58 57 # B B B B
165 1 16 53 58 59 # B B B B
166 1 53 16 19 18 # B B B B
167 1 53 16 19 20 # B B B B
168 1 17 18 19 20 # B B B B
169 1 18 17 22 21 # B B B B
170 1 18 17 22 23 # B B B B
171 1 18 17 60 59 # B B B B
172 1 18 17 60 63 # B B B B
173 1 17 22 21 26 # B B B B
174 1 17 22 21 64 # B B B B
175 1 17 22 23 20 # B B B B
176 1 17 22 23 24 # B B B B
177 1 22 17 18 19 # B B B B
178 1 22 17 60 59 # B B B B
179 1 22 17 60 63 # B B B B
180 1 17 60 59 56 # B B B B
181 1 17 60 59 58 # B B B B
182 1 17 60 63 62 # B B B B
183 1 17 60 63 64 # B B B B
184 1 60 17 18 19 # B B B B
185 1 60 17 22 21 # B B B B
186 1 60 17 22 23 # B B B B
187 1 18 19 20 23 # B B B B
188 1 18 19 20 57 # B B B B
189 1 19 20 23 22 # B B B B
190 1 19 20 23 24 # B B B B
191 1 19 20 57 58 # B B B B
192 1 19 20 57 62 # B B B B
193 1 20 23 22 21 # B B B B
194 1 20 23 24 27 # B B B B
195 1 20 23 24 61 # B B B B
196 1 23 20 57 58 # B B B B
197 1 23 20 57 62 # B B B B
198 1 20 57 58 53 # B B B B
199 1 20 57 58 59 # B B B B
200 1 20 57 62 61 # B B B B
201 1 20 57 62 63 # B B B B
202 1 57 20 23 22 # B B B B
203 1 57 20 23 24 # B B B B
204 1 21 22 23 24 # B B B B
205 1 22 21 26 25 # B B B B
206 1 22 21 26 27 # B B B B
207 1 22 21 64 63 # B B B B
208 1 22 21 64 67 # B B B B
209 1 21 26 25 30 # B B B B
210 1 21 26 25 68 # B B B B
211 1 21 26 27 24 # B B B B
212 1 21 26 27 28 # B B B B
213 1 26 21 22 23 # B B B B
214 1 26 21 64 63 # B B B B
215 1 26 21 64 67 # B B B B
216 1 21 64 63 60 # B B B B
217 1 21 64 63 62 # B B B B
218 1 21 64 67 66 # B B B B
219 1 21 64 67 68 # B B B B
220 1 64 21 22 23 # B B B B
221 1 64 21 26 25 # B B B B
222 1 64 21 26 27 # B B B B
223 1 22 23 24 27 # B B B B
224 1 22 23 24 61 # B B B B
225 1 23 24 27 26 # B B B B
226 1 23 24 27 28 # B B B B
227 1 23 24 61 62 # B B B B
228 1 23 24 61 66 # B B B B
229 1 24 27 26 25 # B B B B
230 1 24 27 28 31 # B B B B
231 1 24 27 28 65 # B B B B
232 1 27 24 61 62 # B B B B
233 1 27 24 61 66 # B B B B
234 1 24 61 62 57 # B B B B
235 1 24 61 62 63 # B B B B
236 1 24 61 66 65 # B B B B
237 1 24 61 66 67 # B B B B
238 1 61 24 27 26 # B B B B
239 1 61 24 27 28 # B B B B
240 1 25 26 27 28 # B B B B
241 1 26 25 30 29 # B B B B
242 1 26 25 30 31 # B B B B
243 1 26 25 68 67 # B B B B
244 1 26 25 68 71 # B B B B
245 1 25 30 29 34 # B B B B
246 1 25 30 29 72 # B B B B
247 1 25 30 31 28 # B B B B
248 1 25 30 31 32 # B B B B
249 1 30 25 26 27 # B B B B
250 1 30 25 68 67 # B B B B
251 1 30 25 68 71 # B B B B
252 1 25 68 67 64 # B B B B
253 1 25 68 67 66 # B B B B
254 1 25 68 71 70 # B B B B
255 1 25 68 71 72 # B B B B
256 1 68 25 26 27 # B B B B
257 1 68 25 30 29 # B B B B
258 1 68 25 30 31 # B B B B
259 1 26 27 28 31 # B B B B
260 1 26 27 28 65 # B B B B
261 1 27 28 31 30 # B B B B
262 1 27 28 31 32 # B B B B
263 1 27 28 65 66 # B B B B
264 1 27 28 65 70 # B B B B
265 1 28 31 30 29 # B B B B
266 1 28 31 32 35 # B B B B
267 1 28 31 32 69 # B B B B
268 1 31 28 65 66 # B B B B
269 1 31 28 65 70 # B B B B
270 1 28 65 66 61 # B B B B
271 1 28 65 66 67 # B B B B
272 1 28 65 70 69 # B B B B
273 1 28 65 70 71 # B B B B
274 1 65 28 31 30 # B B B B
275 1 65 28 31 32 # B B B B
276 1 29 30 31 32 # B B B B
277 1 30 29 34 33 # B B B B
278 1 30 29 34 35 # B B B B
279 1 30 29 72 71 # B B B B
280 1 30 29 72 75 # B B B B
281 1 29 34 33 38 # B B B B
282 1 29 34 33 76 # B B B B
283 1 29 34 35 32 # B B B B
284 1 29 34 35 36 # B B B B
285 1 34 29 30 31 # B B B B
286 1 34 29 72 71 # B B B B
287 1 34 29 72 75 # B B B B
288 1 29 72 71 68 # B B B B
289 1 29 72 71 70 # B B B B
290 1 29 72 75 74 # B B B B
291 1 29 72 75 76 # B B B B
292 1 72 29 30 31 # B B B B
293 1 72 29 34 33 # B B B B
294 1 72 29 34 35 # B B B B
295 1 30 31 32 35 # B B B B
296 1 30 31 32 69 # B B B B
297 1 31 32 35 34 # B B B B
298 1 31 32 35 36 # B B B B
299 1 31 32 69 70 # B B B B
300 1 31 32 69 74 # B B B B
301 1 32 35 34 33 # B B B B
302 1 32 35 36 39 # B B B B
303 1 32 35 36 73 # B B B B
304 1 35 32 69 70 # B B B B
305 1 35 32 69 74 # B B B B
306 1 32 69 70 65 # B B B B
307 1 32 69 70 71 # B B B B
308 1 32 69 74 73 # B B B B
309 1 32 69 74 75 # B B B B
310 1 69 32 35 34 # B B B B
311 1 69 32 35 36 # B B B B
312 1 33 34 35 36 # B B B B
313 1 34 33 38 37 # B B B B
314 1 34 33 38 39 # B B B B
315 1 34 33 76 75 # B B B B
316 1 34 33 76 79 # B B B B
317 1 33 38 37 80 # B B B B
318 1 33 38 39 36 # B B B B
319 1 33 38 39 40 # B B B B
320 1 38 33 34 35 # B B B B
321 1 38 33 76 75 # B B B B
322 1 38 33 76 79 # B B B B
323 1 33 76 75 72 # B B B B
324 1 33 76 75 74 # B B B B
325 1 33 76 79 78 # B B B B
326 1 33 76 79 80 # B B B B
327 1 76 33 34 35 # B B B B
328 1 76 33 38 37 # B B B B
329 1 76 33 38 39 # B B B B
330 1 34 35 36 39 # B B B B
331 1 34 35 36 73 # B B B B
332 1 35 36 39 38 # B B B B
333 1 35 36 39 40 # B B B B
334 1 35 36 73 74 # B B B B
335 1 35 36 73 78 # B B B B
336 1 36 39 38 37 # B B B B
337 1 36 39 40 77 # B B B B
338 1 39 36 73 74 # B B B B
339 1 39 36 73 78 # B B B B
340 1 36 73 74 69 # B B B B
341 1 36 73 74 75 # B B B B
342 1 36 73 78 77 # B B B B
343 1 36 73 78 79 # B B B B
344 1 73 36 39 38 # B B B B
345 1 73 36 39 40 # B B B B
346 1 37 38 39 40 # B B B B
347 1 38 37 80 43 # B B B B
348 1 38 37 80 79 # B B B B
349 1 37 80 43 42 # B B B B
350 1 37 80 43 44 # B B B B
351 1 37 80 79 76 # B B B B
352 1 37 80 79 78 # B B B B
353 1 80 37 38 39 # B B B B
354 1 38 39 40 77 # B B B B
355 1 39 40 77 42 # B B B B
356 1 39 40 77 78 # B B B B
357 1 40 77 42 41 # B B B B
358 1 40 77 42 43 # B B B B
359 1 40 77 78 73 # B B B B
360 1 40 77 78 79 # B B B B
361 1 41 42 43 44 # B B B B
362 1 41 42 43 80 # B B B B
363 1 41 42 77 78 # B B B B
364 1 42 41 46 45 # B B B B
365 1 42 41 46 47 # B B B B
366 1 41 46 45 50 # B B B B
367 1 41 46 47 44 # B B B B
368 1 41 46 47 48 # B B B B
369 1 46 41 42 43 # B B B B
370 1 46 41 42 77 # B B B B
371 1 42 43 44 47 # B B B B
372 1 42 43 80 79 # B B B B
373 1 43 42 77 78 # B B B B
374 1 42 77 78 73 # B B B B
375 1 42 77 78 79 # B B B B
376 1 77 42 43 44 # B B B B
377 1 77 42 43 80 # B B B B
378 1 43 44 47 46 # B B B B
379 1 43 44 47 48 # B B B B
380 1 44 43 80 79 # B B B B
381 1 43 80 79 76 # B B B B
382 1 43 80 79 78 # B B B B
383 1 80 43 44 47 # B B B B
384 1 44 47 46 45 # B B B B
385 1 44 47 48 51 # B B B B
386 1 45 46 47 48 # B B B B
387 1 46 45 50 49 # B B B B
388 1 46 45 50 51 # B B B B
389 1 45 50 49 54 # B B B B
390 1 45 50 51 48 # B B B B
391 1 45 50 51 52 # B B B B
392 1 50 45 46 47 # B B B B
393 1 46 47 48 51 # B B B B
394 1 47 48 51 50 # B B B B
395 1 47 48 51 52 # B B B B
396 1 48 51 50 49 # B B B B
397 1 48 51 52 55 # B B B B
398 1 49 50 51 52 # B B B B
399 1 50 49 54 53 # B B B B
400 1 50 49 54 55 # B B B B
401 1 49 54 53 58 # B B B B
402 1 49 54 55 52 # B B B B
403 1 49 54 55 56 # B B B B
404 1 54 49 50 51 # B B B B
405 1 50 51 52 55 # B B B B
406 1 51 52 55 54 # B B B B
407 1 51 52 55 56 # B B B B
408 1 52 55 54 53 # B B B B
409 1 52 55 56 59 # B B B B
410 1 53 54 55 56 # B B B B
411 1 54 53 58 57 # B B B B
412 1 54 53 58 59 # B B B B
413 1 53 58 57 62 # B B B B
414 1 53 58 59 56 # B B B B
415 1 53 58 59 60 # B B B B
416 1 58 53 54 55 # B B B B
417 1 54 55 56 59 # B B B B
418 1 55 56 59 58 # B B B B
419 1 55 56 59 60 # B B B B
420 1 56 59 58 57 # B B B B
421 1 56 59 60 63 # B B B B
422 1 57 58 59 60 # B B B B
423 1 58 57 62 61 # B B B B
424 1 58 57 62 63 # B B B B
425 1 57 62 61 66 # B B B B
426 1 57 62 63 60 # B B B B
427 1 57 62 63 64 # B B B B
428 1 62 57 58 59 # B B B B
429 1 58 59 60 63 # B B B B
430 1 59 60 63 62 # B B B B
431 1 59 60 63 64 # B B B B
432 1 60 63 62 61 # B B B B
433 1 60 63 64 67 # B B B B
434 1 61 62 63 64 # B B B B
435 1 62 61 66 65 # B B B B
436 1 62 61 66 67 # B B B B
437 1 61 66 65 70 # B B B B
438 1 61 66 67 64 # B B B B
439 1 61 66 67 68 # B B B B
440 1 66 61 62 63 # B B B B
441 1 62 63 64 67 # B B B B
442 1 63 64 67 66 # B B B B
443 1 63 64 67 68 # B B B B
444 1 64 67 66 65 # B B B B
445 1 64 67 68 71 # B B B B
446 1 65 66 67 68 # B B B B
447 1 66 65 70 69 # B B B B
448 1 66 65 70 71 # B B B B
449 1 65 70 69 74 # B B B B
450 1 65 70 71 68 # B B B B
451 1 65 70 71 72 # B B B B
452 1 70 65 66 67 # B B B B
453 1 66 67 68 71 # B B B B
454 1 67 68 71 70 # B B B B
455 1 67 68 71 72 # B B B B
456 1 68 71 70 69 # B B B B
457 1 68 71 72 75 # B B B B
458 1 69 70 71 72 # B B B B
459 1 70 69 74 73 # B B B B
460 1 70 69 74 75 # B B B B
461 1 69 74 73 78 # B B B B
462 1 69 74 75 72 # B B B B
463 1 69 74 75 76 # B B B B
464 1 74 69 70 71 # B B B B
465 1 70 71 72 75 # B B B B
466 1 71 72 75 74 # B B B B
467 1 71 72 75 76 # B B B B
468 1 72 75 74 73 # B B B B
469 1 72 75 76 79 # B B B B
470 1 73 74 75 76 # B B B B
471 1 74 73 78 77 # B B B B
472 1 74 73 78 79 # B B B B
473 1 73 78 79 76 # B B B B
474 1 73 78 79 80 # B B B B
475 1 78 73 74 75 # B B B B
476 1 74 75 76 79 # B B B B
477 1 75 76 79 78 # B B B B
478 1 75 76 79 80 # B B B B
479 1 76 79 78 77 # B B B B
480 1 77 78 79 80 # B B B B
