ITEM: TIMESTEP
0
ITEM: NUMBER OF ATOMS
80      
ITEM: BOX BOUNDS pp pp pp
0.000000000      17.320508080    
0.000000000      6.000000000     
0.000000000      6.661000000     
ITEM: ATOMS id mol type xu yu zu
1 1 1 0.866020 0.000000 0.000000
2 1 1 0.000000 0.500000 0.000000
3 1 1 0.000000 1.500000 0.000000
4 1 1 0.866020 2.000000 0.000000
5 1 1 2.598071 0.000000 0.000000
6 1 1 1.732051 0.500000 0.000000
7 1 1 1.732051 1.500000 0.000000
8 1 1 2.598071 2.000000 0.000000
9 1 1 4.330122 0.000000 0.000000
10 1 1 3.464102 0.500000 0.000000
11 1 1 3.464102 1.500000 0.000000
12 1 1 4.330122 2.000000 0.000000
13 1 1 6.062172 0.000000 0.000000
14 1 1 5.196152 0.500000 0.000000
15 1 1 5.196152 1.500000 0.000000
16 1 1 6.062172 2.000000 0.000000
17 1 1 7.794223 0.000000 0.000000
18 1 1 6.928203 0.500000 0.000000
19 1 1 6.928203 1.500000 0.000000
20 1 1 7.794223 2.000000 0.000000
21 1 1 9.526274 0.000000 0.000000
22 1 1 8.660254 0.500000 0.000000
23 1 1 8.660254 1.500000 0.000000
24 1 1 9.526274 2.000000 0.000000
25 1 1 11.258325 0.000000 0.000000
26 1 1 10.392305 0.500000 0.000000
27 1 1 10.392305 1.500000 0.000000
28 1 1 11.258325 2.000000 0.000000
29 1 1 12.990376 0.000000 0.000000
30 1 1 12.124356 0.500000 0.000000
31 1 1 12.124356 1.500000 0.000000
32 1 1 12.990376 2.000000 0.000000
33 1 1 14.722426 0.000000 0.000000
34 1 1 13.856406 0.500000 0.000000
35 1 1 13.856406 1.500000 0.000000
36 1 1 14.722426 2.000000 0.000000
37 1 1 16.454477 0.000000 0.000000
38 1 1 15.588457 0.500000 0.000000
39 1 1 15.588457 1.500000 0.000000
40 1 1 16.454477 2.000000 0.000000
41 1 1 0.866020 3.000000 0.000000
42 1 1 0.000000 3.500000 0.000000
43 1 1 0.000000 4.500000 0.000000
44 1 1 0.866020 5.000000 0.000000
45 1 1 2.598071 3.000000 0.000000
46 1 1 1.732051 3.500000 0.000000
47 1 1 1.732051 4.500000 0.000000
48 1 1 2.598071 5.000000 0.000000
49 1 1 4.330122 3.000000 0.000000
50 1 1 3.464102 3.500000 0.000000
51 1 1 3.464102 4.500000 0.000000
52 1 1 4.330122 5.000000 0.000000
53 1 1 6.062172 3.000000 0.000000
54 1 1 5.196152 3.500000 0.000000
55 1 1 5.196152 4.500000 0.000000
56 1 1 6.062172 5.000000 0.000000
57 1 1 7.794223 3.000000 0.000000
58 1 1 6.928203 3.500000 0.000000
59 1 1 6.928203 4.500000 0.000000
60 1 1 7.794223 5.000000 0.000000
61 1 1 9.526274 3.000000 0.000000
62 1 1 8.660254 3.500000 0.000000
63 1 1 8.660254 4.500000 0.000000
64 1 1 9.526274 5.000000 0.000000
65 1 1 11.258325 3.000000 0.000000
66 1 1 10.392305 3.500000 0.000000
67 1 1 10.392305 4.500000 0.000000
68 1 1 11.258325 5.000000 0.000000
69 1 1 12.990376 3.000000 0.000000
70 1 1 12.124356 3.500000 0.000000
71 1 1 12.124356 4.500000 0.000000
72 1 1 12.990376 5.000000 0.000000
73 1 1 14.722426 3.000000 0.000000
74 1 1 13.856406 3.500000 0.000000
75 1 1 13.856406 4.500000 0.000000
76 1 1 14.722426 5.000000 0.000000
77 1 1 16.454477 3.000000 0.000000
78 1 1 15.588457 3.500000 0.000000
79 1 1 15.588457 4.500000 0.000000
80 1 1 16.454477 5.000000 0.000000
