# LAMMPS data file

27 atoms
54 bonds
189 angles

3 atom types
2 bond types
6 angle types

0.000000000      3.000000000      xlo xhi
0.000000000      2.598076212      ylo yhi
-20.000000000    40.000000000     zlo zhi
1.500000000      0.000000000      0.000000000      xy xz yz

Masses

1 1.000000000      # 
2 1.000000000      # 
3 1.000000000      # 

Atoms

1 1 1 0.000000000      0.000000000      0.000000000      0.500000001      # 
2 1 2 0.000000000      0.500000000      0.288675135      1.000000001      # 
3 1 3 0.000000000      0.500000000      0.288675135      0.000000001      # 
4 1 1 0.000000000      1.000000000      0.000000000      0.500000001      # 
5 1 2 0.000000000      1.500000000      0.288675135      1.000000001      # 
6 1 3 0.000000000      1.500000000      0.288675135      0.000000001      # 
7 1 1 0.000000000      2.000000000      0.000000000      0.500000001      # 
8 1 2 0.000000000      2.500000000      0.288675135      1.000000001      # 
9 1 3 0.000000000      2.500000000      0.288675135      0.000000001      # 
10 1 1 0.000000000      0.500000000      0.866025404      0.500000001      # 
11 1 2 0.000000000      1.000000000      1.154700539      1.000000001      # 
12 1 3 0.000000000      1.000000000      1.154700539      0.000000001      # 
13 1 1 0.000000000      1.500000000      0.866025404      0.500000001      # 
14 1 2 0.000000000      2.000000000      1.154700539      1.000000001      # 
15 1 3 0.000000000      2.000000000      1.154700539      0.000000001      # 
16 1 1 0.000000000      2.500000000      0.866025404      0.500000001      # 
17 1 2 0.000000000      3.000000000      1.154700539      1.000000001      # 
18 1 3 0.000000000      3.000000000      1.154700539      0.000000001      # 
19 1 1 0.000000000      1.000000000      1.732050808      0.500000001      # 
20 1 2 0.000000000      1.500000000      2.020725943      1.000000001      # 
21 1 3 0.000000000      1.500000000      2.020725943      0.000000001      # 
22 1 1 0.000000000      2.000000000      1.732050808      0.500000001      # 
23 1 2 0.000000000      2.500000000      2.020725943      1.000000001      # 
24 1 3 0.000000000      2.500000000      2.020725943      0.000000001      # 
25 1 1 0.000000000      3.000000000      1.732050808      0.500000001      # 
26 1 2 0.000000000      3.500000000      2.020725943      1.000000001      # 
27 1 3 0.000000000      3.500000000      2.020725943      0.000000001      # 

Bonds

1 1 1 2 # 1 2
2 2 1 3 # 1 3
3 1 1 8 # 1 2
4 2 1 9 # 1 3
5 1 1 20 # 1 2
6 2 1 21 # 1 3
7 1 2 4 # 1 2
8 1 2 10 # 1 2
9 2 3 4 # 1 3
10 2 3 10 # 1 3
11 1 4 5 # 1 2
12 2 4 6 # 1 3
13 1 4 23 # 1 2
14 2 4 24 # 1 3
15 1 5 7 # 1 2
16 1 5 13 # 1 2
17 2 6 7 # 1 3
18 2 6 13 # 1 3
19 1 7 8 # 1 2
20 2 7 9 # 1 3
21 1 7 26 # 1 2
22 2 7 27 # 1 3
23 1 8 16 # 1 2
24 2 9 16 # 1 3
25 1 10 11 # 1 2
26 2 10 12 # 1 3
27 1 10 17 # 1 2
28 2 10 18 # 1 3
29 1 11 13 # 1 2
30 1 11 19 # 1 2
31 2 12 13 # 1 3
32 2 12 19 # 1 3
33 1 13 14 # 1 2
34 2 13 15 # 1 3
35 1 14 16 # 1 2
36 1 14 22 # 1 2
37 2 15 16 # 1 3
38 2 15 22 # 1 3
39 1 16 17 # 1 2
40 2 16 18 # 1 3
41 1 17 25 # 1 2
42 2 18 25 # 1 3
43 1 19 20 # 1 2
44 2 19 21 # 1 3
45 1 19 26 # 1 2
46 2 19 27 # 1 3
47 1 20 22 # 1 2
48 2 21 22 # 1 3
49 1 22 23 # 1 2
50 2 22 24 # 1 3
51 1 23 25 # 1 2
52 2 24 25 # 1 3
53 1 25 26 # 1 2
54 2 25 27 # 1 3

Angles

1 1 1 2 4 # 1 2 1 T
2 1 1 2 10 # 1 2 1 T
3 2 2 1 3 # 2 1 3 N
4 3 2 1 8 # 2 1 2 T
5 4 2 1 9 # 2 1 3 
6 3 2 1 20 # 2 1 2 T
7 4 2 1 21 # 2 1 3 
8 5 1 3 4 # 1 3 1 T
9 5 1 3 10 # 1 3 1 T
10 4 3 1 8 # 2 1 3 
11 6 3 1 9 # 3 1 3 T
12 4 3 1 20 # 2 1 3 
13 6 3 1 21 # 3 1 3 T
14 1 1 8 7 # 1 2 1 T
15 1 1 8 16 # 1 2 1 T
16 2 8 1 9 # 2 1 3 N
17 3 8 1 20 # 2 1 2 T
18 4 8 1 21 # 2 1 3 
19 5 1 9 7 # 1 3 1 T
20 5 1 9 16 # 1 3 1 T
21 4 9 1 20 # 2 1 3 
22 6 9 1 21 # 3 1 3 T
23 1 1 20 19 # 1 2 1 T
24 1 1 20 22 # 1 2 1 T
25 2 20 1 21 # 2 1 3 N
26 5 1 21 19 # 1 3 1 T
27 5 1 21 22 # 1 3 1 T
28 2 2 4 3 # 2 1 3 N
29 3 2 4 5 # 2 1 2 T
30 4 2 4 6 # 2 1 3 
31 3 2 4 23 # 2 1 2 T
32 4 2 4 24 # 2 1 3 
33 1 4 2 10 # 1 2 1 T
34 2 2 10 3 # 2 1 3 N
35 3 2 10 11 # 2 1 2 T
36 4 2 10 12 # 2 1 3 
37 3 2 10 17 # 2 1 2 T
38 4 2 10 18 # 2 1 3 
39 4 3 4 5 # 2 1 3 
40 6 3 4 6 # 3 1 3 T
41 4 3 4 23 # 2 1 3 
42 6 3 4 24 # 3 1 3 T
43 5 4 3 10 # 1 3 1 T
44 4 3 10 11 # 2 1 3 
45 6 3 10 12 # 3 1 3 T
46 4 3 10 17 # 2 1 3 
47 6 3 10 18 # 3 1 3 T
48 1 4 5 7 # 1 2 1 T
49 1 4 5 13 # 1 2 1 T
50 2 5 4 6 # 2 1 3 N
51 3 5 4 23 # 2 1 2 T
52 4 5 4 24 # 2 1 3 
53 5 4 6 7 # 1 3 1 T
54 5 4 6 13 # 1 3 1 T
55 4 6 4 23 # 2 1 3 
56 6 6 4 24 # 3 1 3 T
57 1 4 23 22 # 1 2 1 T
58 1 4 23 25 # 1 2 1 T
59 2 23 4 24 # 2 1 3 N
60 5 4 24 22 # 1 3 1 T
61 5 4 24 25 # 1 3 1 T
62 2 5 7 6 # 2 1 3 N
63 3 5 7 8 # 2 1 2 T
64 4 5 7 9 # 2 1 3 
65 3 5 7 26 # 2 1 2 T
66 4 5 7 27 # 2 1 3 
67 1 7 5 13 # 1 2 1 T
68 2 5 13 6 # 2 1 3 N
69 3 5 13 11 # 2 1 2 T
70 4 5 13 12 # 2 1 3 
71 3 5 13 14 # 2 1 2 T
72 4 5 13 15 # 2 1 3 
73 4 6 7 8 # 2 1 3 
74 6 6 7 9 # 3 1 3 T
75 4 6 7 26 # 2 1 3 
76 6 6 7 27 # 3 1 3 T
77 5 7 6 13 # 1 3 1 T
78 4 6 13 11 # 2 1 3 
79 6 6 13 12 # 3 1 3 T
80 4 6 13 14 # 2 1 3 
81 6 6 13 15 # 3 1 3 T
82 1 7 8 16 # 1 2 1 T
83 2 8 7 9 # 2 1 3 N
84 3 8 7 26 # 2 1 2 T
85 4 8 7 27 # 2 1 3 
86 5 7 9 16 # 1 3 1 T
87 4 9 7 26 # 2 1 3 
88 6 9 7 27 # 3 1 3 T
89 1 7 26 19 # 1 2 1 T
90 1 7 26 25 # 1 2 1 T
91 2 26 7 27 # 2 1 3 N
92 5 7 27 19 # 1 3 1 T
93 5 7 27 25 # 1 3 1 T
94 2 8 16 9 # 2 1 3 N
95 3 8 16 14 # 2 1 2 T
96 4 8 16 15 # 2 1 3 
97 3 8 16 17 # 2 1 2 T
98 4 8 16 18 # 2 1 3 
99 4 9 16 14 # 2 1 3 
100 6 9 16 15 # 3 1 3 T
101 4 9 16 17 # 2 1 3 
102 6 9 16 18 # 3 1 3 T
103 1 10 11 13 # 1 2 1 T
104 1 10 11 19 # 1 2 1 T
105 2 11 10 12 # 2 1 3 N
106 3 11 10 17 # 2 1 2 T
107 4 11 10 18 # 2 1 3 
108 5 10 12 13 # 1 3 1 T
109 5 10 12 19 # 1 3 1 T
110 4 12 10 17 # 2 1 3 
111 6 12 10 18 # 3 1 3 T
112 1 10 17 16 # 1 2 1 T
113 1 10 17 25 # 1 2 1 T
114 2 17 10 18 # 2 1 3 N
115 5 10 18 16 # 1 3 1 T
116 5 10 18 25 # 1 3 1 T
117 2 11 13 12 # 2 1 3 N
118 3 11 13 14 # 2 1 2 T
119 4 11 13 15 # 2 1 3 
120 1 13 11 19 # 1 2 1 T
121 2 11 19 12 # 2 1 3 N
122 3 11 19 20 # 2 1 2 T
123 4 11 19 21 # 2 1 3 
124 3 11 19 26 # 2 1 2 T
125 4 11 19 27 # 2 1 3 
126 4 12 13 14 # 2 1 3 
127 6 12 13 15 # 3 1 3 T
128 5 13 12 19 # 1 3 1 T
129 4 12 19 20 # 2 1 3 
130 6 12 19 21 # 3 1 3 T
131 4 12 19 26 # 2 1 3 
132 6 12 19 27 # 3 1 3 T
133 1 13 14 16 # 1 2 1 T
134 1 13 14 22 # 1 2 1 T
135 2 14 13 15 # 2 1 3 N
136 5 13 15 16 # 1 3 1 T
137 5 13 15 22 # 1 3 1 T
138 2 14 16 15 # 2 1 3 N
139 3 14 16 17 # 2 1 2 T
140 4 14 16 18 # 2 1 3 
141 1 16 14 22 # 1 2 1 T
142 2 14 22 15 # 2 1 3 N
143 3 14 22 20 # 2 1 2 T
144 4 14 22 21 # 2 1 3 
145 3 14 22 23 # 2 1 2 T
146 4 14 22 24 # 2 1 3 
147 4 15 16 17 # 2 1 3 
148 6 15 16 18 # 3 1 3 T
149 5 16 15 22 # 1 3 1 T
150 4 15 22 20 # 2 1 3 
151 6 15 22 21 # 3 1 3 T
152 4 15 22 23 # 2 1 3 
153 6 15 22 24 # 3 1 3 T
154 1 16 17 25 # 1 2 1 T
155 2 17 16 18 # 2 1 3 N
156 5 16 18 25 # 1 3 1 T
157 2 17 25 18 # 2 1 3 N
158 3 17 25 23 # 2 1 2 T
159 4 17 25 24 # 2 1 3 
160 3 17 25 26 # 2 1 2 T
161 4 17 25 27 # 2 1 3 
162 4 18 25 23 # 2 1 3 
163 6 18 25 24 # 3 1 3 T
164 4 18 25 26 # 2 1 3 
165 6 18 25 27 # 3 1 3 T
166 1 19 20 22 # 1 2 1 T
167 2 20 19 21 # 2 1 3 N
168 3 20 19 26 # 2 1 2 T
169 4 20 19 27 # 2 1 3 
170 5 19 21 22 # 1 3 1 T
171 4 21 19 26 # 2 1 3 
172 6 21 19 27 # 3 1 3 T
173 1 19 26 25 # 1 2 1 T
174 2 26 19 27 # 2 1 3 N
175 5 19 27 25 # 1 3 1 T
176 2 20 22 21 # 2 1 3 N
177 3 20 22 23 # 2 1 2 T
178 4 20 22 24 # 2 1 3 
179 4 21 22 23 # 2 1 3 
180 6 21 22 24 # 3 1 3 T
181 1 22 23 25 # 1 2 1 T
182 2 23 22 24 # 2 1 3 N
183 5 22 24 25 # 1 3 1 T
184 2 23 25 24 # 2 1 3 N
185 3 23 25 26 # 2 1 2 T
186 4 23 25 27 # 2 1 3 
187 4 24 25 26 # 2 1 3 
188 6 24 25 27 # 3 1 3 T
189 2 26 25 27 # 2 1 3 N
