ITEM: TIMESTEP
0
ITEM: NUMBER OF ATOMS
14880   
ITEM: BOX BOUNDS pp pp pp
0.000000000      192.076000000   
0.000000000      64.390716000    
0.000000000      37.600000000    
ITEM: ATOMS id mol type xu yu zu
1 1 1 0.000000 0.000000 9.480000
2 1 1 1.549000 0.894316 7.164984
3 1 2 1.549000 0.894316 10.795824
4 1 1 0.000000 1.788631 11.795016
5 1 2 0.000000 1.788631 8.164176
6 1 1 1.549000 2.682947 9.480000
7 1 1 0.000000 3.577262 7.164984
8 1 2 0.000000 3.577262 10.795824
9 1 1 1.549000 4.471578 11.795016
10 1 2 1.549000 4.471578 8.164176
11 1 1 3.098000 0.000000 9.480000
12 1 1 4.647000 0.894316 7.164984
13 1 2 4.647000 0.894316 10.795824
14 1 1 3.098000 1.788631 11.795016
15 1 2 3.098000 1.788631 8.164176
16 1 1 4.647000 2.682947 9.480000
17 1 1 3.098000 3.577262 7.164984
18 1 2 3.098000 3.577262 10.795824
19 1 1 4.647000 4.471578 11.795016
20 1 2 4.647000 4.471578 8.164176
21 1 1 6.196000 0.000000 9.480000
22 1 1 7.745000 0.894316 7.164984
23 1 2 7.745000 0.894316 10.795824
24 1 1 6.196000 1.788631 11.795016
25 1 2 6.196000 1.788631 8.164176
26 1 1 7.745000 2.682947 9.480000
27 1 1 6.196000 3.577262 7.164984
28 1 2 6.196000 3.577262 10.795824
29 1 1 7.745000 4.471578 11.795016
30 1 2 7.745000 4.471578 8.164176
31 1 1 9.294000 0.000000 9.480000
32 1 1 10.843000 0.894316 7.164984
33 1 2 10.843000 0.894316 10.795824
34 1 1 9.294000 1.788631 11.795016
35 1 2 9.294000 1.788631 8.164176
36 1 1 10.843000 2.682947 9.480000
37 1 1 9.294000 3.577262 7.164984
38 1 2 9.294000 3.577262 10.795824
39 1 1 10.843000 4.471578 11.795016
40 1 2 10.843000 4.471578 8.164176
41 1 1 12.392000 0.000000 9.480000
42 1 1 13.941000 0.894316 7.164984
43 1 2 13.941000 0.894316 10.795824
44 1 1 12.392000 1.788631 11.795016
45 1 2 12.392000 1.788631 8.164176
46 1 1 13.941000 2.682947 9.480000
47 1 1 12.392000 3.577262 7.164984
48 1 2 12.392000 3.577262 10.795824
49 1 1 13.941000 4.471578 11.795016
50 1 2 13.941000 4.471578 8.164176
51 1 1 15.490000 0.000000 9.480000
52 1 1 17.039000 0.894316 7.164984
53 1 2 17.039000 0.894316 10.795824
54 1 1 15.490000 1.788631 11.795016
55 1 2 15.490000 1.788631 8.164176
56 1 1 17.039000 2.682947 9.480000
57 1 1 15.490000 3.577262 7.164984
58 1 2 15.490000 3.577262 10.795824
59 1 1 17.039000 4.471578 11.795016
60 1 2 17.039000 4.471578 8.164176
61 1 1 18.588000 0.000000 9.480000
62 1 1 20.137000 0.894316 7.164984
63 1 2 20.137000 0.894316 10.795824
64 1 1 18.588000 1.788631 11.795016
65 1 2 18.588000 1.788631 8.164176
66 1 1 20.137000 2.682947 9.480000
67 1 1 18.588000 3.577262 7.164984
68 1 2 18.588000 3.577262 10.795824
69 1 1 20.137000 4.471578 11.795016
70 1 2 20.137000 4.471578 8.164176
71 1 1 21.686000 0.000000 9.480000
72 1 1 23.235000 0.894316 7.164984
73 1 2 23.235000 0.894316 10.795824
74 1 1 21.686000 1.788631 11.795016
75 1 2 21.686000 1.788631 8.164176
76 1 1 23.235000 2.682947 9.480000
77 1 1 21.686000 3.577262 7.164984
78 1 2 21.686000 3.577262 10.795824
79 1 1 23.235000 4.471578 11.795016
80 1 2 23.235000 4.471578 8.164176
81 1 1 24.784000 0.000000 9.480000
82 1 1 26.333000 0.894316 7.164984
83 1 2 26.333000 0.894316 10.795824
84 1 1 24.784000 1.788631 11.795016
85 1 2 24.784000 1.788631 8.164176
86 1 1 26.333000 2.682947 9.480000
87 1 1 24.784000 3.577262 7.164984
88 1 2 24.784000 3.577262 10.795824
89 1 1 26.333000 4.471578 11.795016
90 1 2 26.333000 4.471578 8.164176
91 1 1 27.882000 0.000000 9.480000
92 1 1 29.431000 0.894316 7.164984
93 1 2 29.431000 0.894316 10.795824
94 1 1 27.882000 1.788631 11.795016
95 1 2 27.882000 1.788631 8.164176
96 1 1 29.431000 2.682947 9.480000
97 1 1 27.882000 3.577262 7.164984
98 1 2 27.882000 3.577262 10.795824
99 1 1 29.431000 4.471578 11.795016
100 1 2 29.431000 4.471578 8.164176
101 1 1 30.980000 0.000000 9.480000
102 1 1 32.529000 0.894316 7.164984
103 1 2 32.529000 0.894316 10.795824
104 1 1 30.980000 1.788631 11.795016
105 1 2 30.980000 1.788631 8.164176
106 1 1 32.529000 2.682947 9.480000
107 1 1 30.980000 3.577262 7.164984
108 1 2 30.980000 3.577262 10.795824
109 1 1 32.529000 4.471578 11.795016
110 1 2 32.529000 4.471578 8.164176
111 1 1 34.078000 0.000000 9.480000
112 1 1 35.627000 0.894316 7.164984
113 1 2 35.627000 0.894316 10.795824
114 1 1 34.078000 1.788631 11.795016
115 1 2 34.078000 1.788631 8.164176
116 1 1 35.627000 2.682947 9.480000
117 1 1 34.078000 3.577262 7.164984
118 1 2 34.078000 3.577262 10.795824
119 1 1 35.627000 4.471578 11.795016
120 1 2 35.627000 4.471578 8.164176
121 1 1 37.176000 0.000000 9.480000
122 1 1 38.725000 0.894316 7.164984
123 1 2 38.725000 0.894316 10.795824
124 1 1 37.176000 1.788631 11.795016
125 1 2 37.176000 1.788631 8.164176
126 1 1 38.725000 2.682947 9.480000
127 1 1 37.176000 3.577262 7.164984
128 1 2 37.176000 3.577262 10.795824
129 1 1 38.725000 4.471578 11.795016
130 1 2 38.725000 4.471578 8.164176
131 1 1 40.274000 0.000000 9.480000
132 1 1 41.823000 0.894316 7.164984
133 1 2 41.823000 0.894316 10.795824
134 1 1 40.274000 1.788631 11.795016
135 1 2 40.274000 1.788631 8.164176
136 1 1 41.823000 2.682947 9.480000
137 1 1 40.274000 3.577262 7.164984
138 1 2 40.274000 3.577262 10.795824
139 1 1 41.823000 4.471578 11.795016
140 1 2 41.823000 4.471578 8.164176
141 1 1 43.372000 0.000000 9.480000
142 1 1 44.921000 0.894316 7.164984
143 1 2 44.921000 0.894316 10.795824
144 1 1 43.372000 1.788631 11.795016
145 1 2 43.372000 1.788631 8.164176
146 1 1 44.921000 2.682947 9.480000
147 1 1 43.372000 3.577262 7.164984
148 1 2 43.372000 3.577262 10.795824
149 1 1 44.921000 4.471578 11.795016
150 1 2 44.921000 4.471578 8.164176
151 1 1 46.470000 0.000000 9.480000
152 1 1 48.019000 0.894316 7.164984
153 1 2 48.019000 0.894316 10.795824
154 1 1 46.470000 1.788631 11.795016
155 1 2 46.470000 1.788631 8.164176
156 1 1 48.019000 2.682947 9.480000
157 1 1 46.470000 3.577262 7.164984
158 1 2 46.470000 3.577262 10.795824
159 1 1 48.019000 4.471578 11.795016
160 1 2 48.019000 4.471578 8.164176
161 1 1 49.568000 0.000000 9.480000
162 1 1 51.117000 0.894316 7.164984
163 1 2 51.117000 0.894316 10.795824
164 1 1 49.568000 1.788631 11.795016
165 1 2 49.568000 1.788631 8.164176
166 1 1 51.117000 2.682947 9.480000
167 1 1 49.568000 3.577262 7.164984
168 1 2 49.568000 3.577262 10.795824
169 1 1 51.117000 4.471578 11.795016
170 1 2 51.117000 4.471578 8.164176
171 1 1 52.666000 0.000000 9.480000
172 1 1 54.215000 0.894316 7.164984
173 1 2 54.215000 0.894316 10.795824
174 1 1 52.666000 1.788631 11.795016
175 1 2 52.666000 1.788631 8.164176
176 1 1 54.215000 2.682947 9.480000
177 1 1 52.666000 3.577262 7.164984
178 1 2 52.666000 3.577262 10.795824
179 1 1 54.215000 4.471578 11.795016
180 1 2 54.215000 4.471578 8.164176
181 1 1 55.764000 0.000000 9.480000
182 1 1 57.313000 0.894316 7.164984
183 1 2 57.313000 0.894316 10.795824
184 1 1 55.764000 1.788631 11.795016
185 1 2 55.764000 1.788631 8.164176
186 1 1 57.313000 2.682947 9.480000
187 1 1 55.764000 3.577262 7.164984
188 1 2 55.764000 3.577262 10.795824
189 1 1 57.313000 4.471578 11.795016
190 1 2 57.313000 4.471578 8.164176
191 1 1 58.862000 0.000000 9.480000
192 1 1 60.411000 0.894316 7.164984
193 1 2 60.411000 0.894316 10.795824
194 1 1 58.862000 1.788631 11.795016
195 1 2 58.862000 1.788631 8.164176
196 1 1 60.411000 2.682947 9.480000
197 1 1 58.862000 3.577262 7.164984
198 1 2 58.862000 3.577262 10.795824
199 1 1 60.411000 4.471578 11.795016
200 1 2 60.411000 4.471578 8.164176
201 1 1 61.960000 0.000000 9.480000
202 1 1 63.509000 0.894316 7.164984
203 1 2 63.509000 0.894316 10.795824
204 1 1 61.960000 1.788631 11.795016
205 1 2 61.960000 1.788631 8.164176
206 1 1 63.509000 2.682947 9.480000
207 1 1 61.960000 3.577262 7.164984
208 1 2 61.960000 3.577262 10.795824
209 1 1 63.509000 4.471578 11.795016
210 1 2 63.509000 4.471578 8.164176
211 1 1 65.058000 0.000000 9.480000
212 1 1 66.607000 0.894316 7.164984
213 1 2 66.607000 0.894316 10.795824
214 1 1 65.058000 1.788631 11.795016
215 1 2 65.058000 1.788631 8.164176
216 1 1 66.607000 2.682947 9.480000
217 1 1 65.058000 3.577262 7.164984
218 1 2 65.058000 3.577262 10.795824
219 1 1 66.607000 4.471578 11.795016
220 1 2 66.607000 4.471578 8.164176
221 1 1 68.156000 0.000000 9.480000
222 1 1 69.705000 0.894316 7.164984
223 1 2 69.705000 0.894316 10.795824
224 1 1 68.156000 1.788631 11.795016
225 1 2 68.156000 1.788631 8.164176
226 1 1 69.705000 2.682947 9.480000
227 1 1 68.156000 3.577262 7.164984
228 1 2 68.156000 3.577262 10.795824
229 1 1 69.705000 4.471578 11.795016
230 1 2 69.705000 4.471578 8.164176
231 1 1 71.254000 0.000000 9.480000
232 1 1 72.803000 0.894316 7.164984
233 1 2 72.803000 0.894316 10.795824
234 1 1 71.254000 1.788631 11.795016
235 1 2 71.254000 1.788631 8.164176
236 1 1 72.803000 2.682947 9.480000
237 1 1 71.254000 3.577262 7.164984
238 1 2 71.254000 3.577262 10.795824
239 1 1 72.803000 4.471578 11.795016
240 1 2 72.803000 4.471578 8.164176
241 1 1 74.352000 0.000000 9.480000
242 1 1 75.901000 0.894316 7.164984
243 1 2 75.901000 0.894316 10.795824
244 1 1 74.352000 1.788631 11.795016
245 1 2 74.352000 1.788631 8.164176
246 1 1 75.901000 2.682947 9.480000
247 1 1 74.352000 3.577262 7.164984
248 1 2 74.352000 3.577262 10.795824
249 1 1 75.901000 4.471578 11.795016
250 1 2 75.901000 4.471578 8.164176
251 1 1 77.450000 0.000000 9.480000
252 1 1 78.999000 0.894316 7.164984
253 1 2 78.999000 0.894316 10.795824
254 1 1 77.450000 1.788631 11.795016
255 1 2 77.450000 1.788631 8.164176
256 1 1 78.999000 2.682947 9.480000
257 1 1 77.450000 3.577262 7.164984
258 1 2 77.450000 3.577262 10.795824
259 1 1 78.999000 4.471578 11.795016
260 1 2 78.999000 4.471578 8.164176
261 1 1 80.548000 0.000000 9.480000
262 1 1 82.097000 0.894316 7.164984
263 1 2 82.097000 0.894316 10.795824
264 1 1 80.548000 1.788631 11.795016
265 1 2 80.548000 1.788631 8.164176
266 1 1 82.097000 2.682947 9.480000
267 1 1 80.548000 3.577262 7.164984
268 1 2 80.548000 3.577262 10.795824
269 1 1 82.097000 4.471578 11.795016
270 1 2 82.097000 4.471578 8.164176
271 1 1 83.646000 0.000000 9.480000
272 1 1 85.195000 0.894316 7.164984
273 1 2 85.195000 0.894316 10.795824
274 1 1 83.646000 1.788631 11.795016
275 1 2 83.646000 1.788631 8.164176
276 1 1 85.195000 2.682947 9.480000
277 1 1 83.646000 3.577262 7.164984
278 1 2 83.646000 3.577262 10.795824
279 1 1 85.195000 4.471578 11.795016
280 1 2 85.195000 4.471578 8.164176
281 1 1 86.744000 0.000000 9.480000
282 1 1 88.293000 0.894316 7.164984
283 1 2 88.293000 0.894316 10.795824
284 1 1 86.744000 1.788631 11.795016
285 1 2 86.744000 1.788631 8.164176
286 1 1 88.293000 2.682947 9.480000
287 1 1 86.744000 3.577262 7.164984
288 1 2 86.744000 3.577262 10.795824
289 1 1 88.293000 4.471578 11.795016
290 1 2 88.293000 4.471578 8.164176
291 1 1 89.842000 0.000000 9.480000
292 1 1 91.391000 0.894316 7.164984
293 1 2 91.391000 0.894316 10.795824
294 1 1 89.842000 1.788631 11.795016
295 1 2 89.842000 1.788631 8.164176
296 1 1 91.391000 2.682947 9.480000
297 1 1 89.842000 3.577262 7.164984
298 1 2 89.842000 3.577262 10.795824
299 1 1 91.391000 4.471578 11.795016
300 1 2 91.391000 4.471578 8.164176
301 1 1 92.940000 0.000000 9.480000
302 1 1 94.489000 0.894316 7.164984
303 1 2 94.489000 0.894316 10.795824
304 1 1 92.940000 1.788631 11.795016
305 1 2 92.940000 1.788631 8.164176
306 1 1 94.489000 2.682947 9.480000
307 1 1 92.940000 3.577262 7.164984
308 1 2 92.940000 3.577262 10.795824
309 1 1 94.489000 4.471578 11.795016
310 1 2 94.489000 4.471578 8.164176
311 1 1 96.038000 0.000000 9.480000
312 1 1 97.587000 0.894316 7.164984
313 1 2 97.587000 0.894316 10.795824
314 1 1 96.038000 1.788631 11.795016
315 1 2 96.038000 1.788631 8.164176
316 1 1 97.587000 2.682947 9.480000
317 1 1 96.038000 3.577262 7.164984
318 1 2 96.038000 3.577262 10.795824
319 1 1 97.587000 4.471578 11.795016
320 1 2 97.587000 4.471578 8.164176
321 1 1 99.136000 0.000000 9.480000
322 1 1 100.685000 0.894316 7.164984
323 1 2 100.685000 0.894316 10.795824
324 1 1 99.136000 1.788631 11.795016
325 1 2 99.136000 1.788631 8.164176
326 1 1 100.685000 2.682947 9.480000
327 1 1 99.136000 3.577262 7.164984
328 1 2 99.136000 3.577262 10.795824
329 1 1 100.685000 4.471578 11.795016
330 1 2 100.685000 4.471578 8.164176
331 1 1 102.234000 0.000000 9.480000
332 1 1 103.783000 0.894316 7.164984
333 1 2 103.783000 0.894316 10.795824
334 1 1 102.234000 1.788631 11.795016
335 1 2 102.234000 1.788631 8.164176
336 1 1 103.783000 2.682947 9.480000
337 1 1 102.234000 3.577262 7.164984
338 1 2 102.234000 3.577262 10.795824
339 1 1 103.783000 4.471578 11.795016
340 1 2 103.783000 4.471578 8.164176
341 1 1 105.332000 0.000000 9.480000
342 1 1 106.881000 0.894316 7.164984
343 1 2 106.881000 0.894316 10.795824
344 1 1 105.332000 1.788631 11.795016
345 1 2 105.332000 1.788631 8.164176
346 1 1 106.881000 2.682947 9.480000
347 1 1 105.332000 3.577262 7.164984
348 1 2 105.332000 3.577262 10.795824
349 1 1 106.881000 4.471578 11.795016
350 1 2 106.881000 4.471578 8.164176
351 1 1 108.430000 0.000000 9.480000
352 1 1 109.979000 0.894316 7.164984
353 1 2 109.979000 0.894316 10.795824
354 1 1 108.430000 1.788631 11.795016
355 1 2 108.430000 1.788631 8.164176
356 1 1 109.979000 2.682947 9.480000
357 1 1 108.430000 3.577262 7.164984
358 1 2 108.430000 3.577262 10.795824
359 1 1 109.979000 4.471578 11.795016
360 1 2 109.979000 4.471578 8.164176
361 1 1 111.528000 0.000000 9.480000
362 1 1 113.077000 0.894316 7.164984
363 1 2 113.077000 0.894316 10.795824
364 1 1 111.528000 1.788631 11.795016
365 1 2 111.528000 1.788631 8.164176
366 1 1 113.077000 2.682947 9.480000
367 1 1 111.528000 3.577262 7.164984
368 1 2 111.528000 3.577262 10.795824
369 1 1 113.077000 4.471578 11.795016
370 1 2 113.077000 4.471578 8.164176
371 1 1 114.626000 0.000000 9.480000
372 1 1 116.175000 0.894316 7.164984
373 1 2 116.175000 0.894316 10.795824
374 1 1 114.626000 1.788631 11.795016
375 1 2 114.626000 1.788631 8.164176
376 1 1 116.175000 2.682947 9.480000
377 1 1 114.626000 3.577262 7.164984
378 1 2 114.626000 3.577262 10.795824
379 1 1 116.175000 4.471578 11.795016
380 1 2 116.175000 4.471578 8.164176
381 1 1 117.724000 0.000000 9.480000
382 1 1 119.273000 0.894316 7.164984
383 1 2 119.273000 0.894316 10.795824
384 1 1 117.724000 1.788631 11.795016
385 1 2 117.724000 1.788631 8.164176
386 1 1 119.273000 2.682947 9.480000
387 1 1 117.724000 3.577262 7.164984
388 1 2 117.724000 3.577262 10.795824
389 1 1 119.273000 4.471578 11.795016
390 1 2 119.273000 4.471578 8.164176
391 1 1 120.822000 0.000000 9.480000
392 1 1 122.371000 0.894316 7.164984
393 1 2 122.371000 0.894316 10.795824
394 1 1 120.822000 1.788631 11.795016
395 1 2 120.822000 1.788631 8.164176
396 1 1 122.371000 2.682947 9.480000
397 1 1 120.822000 3.577262 7.164984
398 1 2 120.822000 3.577262 10.795824
399 1 1 122.371000 4.471578 11.795016
400 1 2 122.371000 4.471578 8.164176
401 1 1 123.920000 0.000000 9.480000
402 1 1 125.469000 0.894316 7.164984
403 1 2 125.469000 0.894316 10.795824
404 1 1 123.920000 1.788631 11.795016
405 1 2 123.920000 1.788631 8.164176
406 1 1 125.469000 2.682947 9.480000
407 1 1 123.920000 3.577262 7.164984
408 1 2 123.920000 3.577262 10.795824
409 1 1 125.469000 4.471578 11.795016
410 1 2 125.469000 4.471578 8.164176
411 1 1 127.018000 0.000000 9.480000
412 1 1 128.567000 0.894316 7.164984
413 1 2 128.567000 0.894316 10.795824
414 1 1 127.018000 1.788631 11.795016
415 1 2 127.018000 1.788631 8.164176
416 1 1 128.567000 2.682947 9.480000
417 1 1 127.018000 3.577262 7.164984
418 1 2 127.018000 3.577262 10.795824
419 1 1 128.567000 4.471578 11.795016
420 1 2 128.567000 4.471578 8.164176
421 1 1 130.116000 0.000000 9.480000
422 1 1 131.665000 0.894316 7.164984
423 1 2 131.665000 0.894316 10.795824
424 1 1 130.116000 1.788631 11.795016
425 1 2 130.116000 1.788631 8.164176
426 1 1 131.665000 2.682947 9.480000
427 1 1 130.116000 3.577262 7.164984
428 1 2 130.116000 3.577262 10.795824
429 1 1 131.665000 4.471578 11.795016
430 1 2 131.665000 4.471578 8.164176
431 1 1 133.214000 0.000000 9.480000
432 1 1 134.763000 0.894316 7.164984
433 1 2 134.763000 0.894316 10.795824
434 1 1 133.214000 1.788631 11.795016
435 1 2 133.214000 1.788631 8.164176
436 1 1 134.763000 2.682947 9.480000
437 1 1 133.214000 3.577262 7.164984
438 1 2 133.214000 3.577262 10.795824
439 1 1 134.763000 4.471578 11.795016
440 1 2 134.763000 4.471578 8.164176
441 1 1 136.312000 0.000000 9.480000
442 1 1 137.861000 0.894316 7.164984
443 1 2 137.861000 0.894316 10.795824
444 1 1 136.312000 1.788631 11.795016
445 1 2 136.312000 1.788631 8.164176
446 1 1 137.861000 2.682947 9.480000
447 1 1 136.312000 3.577262 7.164984
448 1 2 136.312000 3.577262 10.795824
449 1 1 137.861000 4.471578 11.795016
450 1 2 137.861000 4.471578 8.164176
451 1 1 139.410000 0.000000 9.480000
452 1 1 140.959000 0.894316 7.164984
453 1 2 140.959000 0.894316 10.795824
454 1 1 139.410000 1.788631 11.795016
455 1 2 139.410000 1.788631 8.164176
456 1 1 140.959000 2.682947 9.480000
457 1 1 139.410000 3.577262 7.164984
458 1 2 139.410000 3.577262 10.795824
459 1 1 140.959000 4.471578 11.795016
460 1 2 140.959000 4.471578 8.164176
461 1 1 142.508000 0.000000 9.480000
462 1 1 144.057000 0.894316 7.164984
463 1 2 144.057000 0.894316 10.795824
464 1 1 142.508000 1.788631 11.795016
465 1 2 142.508000 1.788631 8.164176
466 1 1 144.057000 2.682947 9.480000
467 1 1 142.508000 3.577262 7.164984
468 1 2 142.508000 3.577262 10.795824
469 1 1 144.057000 4.471578 11.795016
470 1 2 144.057000 4.471578 8.164176
471 1 1 145.606000 0.000000 9.480000
472 1 1 147.155000 0.894316 7.164984
473 1 2 147.155000 0.894316 10.795824
474 1 1 145.606000 1.788631 11.795016
475 1 2 145.606000 1.788631 8.164176
476 1 1 147.155000 2.682947 9.480000
477 1 1 145.606000 3.577262 7.164984
478 1 2 145.606000 3.577262 10.795824
479 1 1 147.155000 4.471578 11.795016
480 1 2 147.155000 4.471578 8.164176
481 1 1 148.704000 0.000000 9.480000
482 1 1 150.253000 0.894316 7.164984
483 1 2 150.253000 0.894316 10.795824
484 1 1 148.704000 1.788631 11.795016
485 1 2 148.704000 1.788631 8.164176
486 1 1 150.253000 2.682947 9.480000
487 1 1 148.704000 3.577262 7.164984
488 1 2 148.704000 3.577262 10.795824
489 1 1 150.253000 4.471578 11.795016
490 1 2 150.253000 4.471578 8.164176
491 1 1 151.802000 0.000000 9.480000
492 1 1 153.351000 0.894316 7.164984
493 1 2 153.351000 0.894316 10.795824
494 1 1 151.802000 1.788631 11.795016
495 1 2 151.802000 1.788631 8.164176
496 1 1 153.351000 2.682947 9.480000
497 1 1 151.802000 3.577262 7.164984
498 1 2 151.802000 3.577262 10.795824
499 1 1 153.351000 4.471578 11.795016
500 1 2 153.351000 4.471578 8.164176
501 1 1 154.900000 0.000000 9.480000
502 1 1 156.449000 0.894316 7.164984
503 1 2 156.449000 0.894316 10.795824
504 1 1 154.900000 1.788631 11.795016
505 1 2 154.900000 1.788631 8.164176
506 1 1 156.449000 2.682947 9.480000
507 1 1 154.900000 3.577262 7.164984
508 1 2 154.900000 3.577262 10.795824
509 1 1 156.449000 4.471578 11.795016
510 1 2 156.449000 4.471578 8.164176
511 1 1 157.998000 0.000000 9.480000
512 1 1 159.547000 0.894316 7.164984
513 1 2 159.547000 0.894316 10.795824
514 1 1 157.998000 1.788631 11.795016
515 1 2 157.998000 1.788631 8.164176
516 1 1 159.547000 2.682947 9.480000
517 1 1 157.998000 3.577262 7.164984
518 1 2 157.998000 3.577262 10.795824
519 1 1 159.547000 4.471578 11.795016
520 1 2 159.547000 4.471578 8.164176
521 1 1 161.096000 0.000000 9.480000
522 1 1 162.645000 0.894316 7.164984
523 1 2 162.645000 0.894316 10.795824
524 1 1 161.096000 1.788631 11.795016
525 1 2 161.096000 1.788631 8.164176
526 1 1 162.645000 2.682947 9.480000
527 1 1 161.096000 3.577262 7.164984
528 1 2 161.096000 3.577262 10.795824
529 1 1 162.645000 4.471578 11.795016
530 1 2 162.645000 4.471578 8.164176
531 1 1 164.194000 0.000000 9.480000
532 1 1 165.743000 0.894316 7.164984
533 1 2 165.743000 0.894316 10.795824
534 1 1 164.194000 1.788631 11.795016
535 1 2 164.194000 1.788631 8.164176
536 1 1 165.743000 2.682947 9.480000
537 1 1 164.194000 3.577262 7.164984
538 1 2 164.194000 3.577262 10.795824
539 1 1 165.743000 4.471578 11.795016
540 1 2 165.743000 4.471578 8.164176
541 1 1 167.292000 0.000000 9.480000
542 1 1 168.841000 0.894316 7.164984
543 1 2 168.841000 0.894316 10.795824
544 1 1 167.292000 1.788631 11.795016
545 1 2 167.292000 1.788631 8.164176
546 1 1 168.841000 2.682947 9.480000
547 1 1 167.292000 3.577262 7.164984
548 1 2 167.292000 3.577262 10.795824
549 1 1 168.841000 4.471578 11.795016
550 1 2 168.841000 4.471578 8.164176
551 1 1 170.390000 0.000000 9.480000
552 1 1 171.939000 0.894316 7.164984
553 1 2 171.939000 0.894316 10.795824
554 1 1 170.390000 1.788631 11.795016
555 1 2 170.390000 1.788631 8.164176
556 1 1 171.939000 2.682947 9.480000
557 1 1 170.390000 3.577262 7.164984
558 1 2 170.390000 3.577262 10.795824
559 1 1 171.939000 4.471578 11.795016
560 1 2 171.939000 4.471578 8.164176
561 1 1 173.488000 0.000000 9.480000
562 1 1 175.037000 0.894316 7.164984
563 1 2 175.037000 0.894316 10.795824
564 1 1 173.488000 1.788631 11.795016
565 1 2 173.488000 1.788631 8.164176
566 1 1 175.037000 2.682947 9.480000
567 1 1 173.488000 3.577262 7.164984
568 1 2 173.488000 3.577262 10.795824
569 1 1 175.037000 4.471578 11.795016
570 1 2 175.037000 4.471578 8.164176
571 1 1 176.586000 0.000000 9.480000
572 1 1 178.135000 0.894316 7.164984
573 1 2 178.135000 0.894316 10.795824
574 1 1 176.586000 1.788631 11.795016
575 1 2 176.586000 1.788631 8.164176
576 1 1 178.135000 2.682947 9.480000
577 1 1 176.586000 3.577262 7.164984
578 1 2 176.586000 3.577262 10.795824
579 1 1 178.135000 4.471578 11.795016
580 1 2 178.135000 4.471578 8.164176
581 1 1 179.684000 0.000000 9.480000
582 1 1 181.233000 0.894316 7.164984
583 1 2 181.233000 0.894316 10.795824
584 1 1 179.684000 1.788631 11.795016
585 1 2 179.684000 1.788631 8.164176
586 1 1 181.233000 2.682947 9.480000
587 1 1 179.684000 3.577262 7.164984
588 1 2 179.684000 3.577262 10.795824
589 1 1 181.233000 4.471578 11.795016
590 1 2 181.233000 4.471578 8.164176
591 1 1 182.782000 0.000000 9.480000
592 1 1 184.331000 0.894316 7.164984
593 1 2 184.331000 0.894316 10.795824
594 1 1 182.782000 1.788631 11.795016
595 1 2 182.782000 1.788631 8.164176
596 1 1 184.331000 2.682947 9.480000
597 1 1 182.782000 3.577262 7.164984
598 1 2 182.782000 3.577262 10.795824
599 1 1 184.331000 4.471578 11.795016
600 1 2 184.331000 4.471578 8.164176
601 1 1 185.880000 0.000000 9.480000
602 1 1 187.429000 0.894316 7.164984
603 1 2 187.429000 0.894316 10.795824
604 1 1 185.880000 1.788631 11.795016
605 1 2 185.880000 1.788631 8.164176
606 1 1 187.429000 2.682947 9.480000
607 1 1 185.880000 3.577262 7.164984
608 1 2 185.880000 3.577262 10.795824
609 1 1 187.429000 4.471578 11.795016
610 1 2 187.429000 4.471578 8.164176
611 1 1 188.978000 0.000000 9.480000
612 1 1 190.527000 0.894316 7.164984
613 1 2 190.527000 0.894316 10.795824
614 1 1 188.978000 1.788631 11.795016
615 1 2 188.978000 1.788631 8.164176
616 1 1 190.527000 2.682947 9.480000
617 1 1 188.978000 3.577262 7.164984
618 1 2 188.978000 3.577262 10.795824
619 1 1 190.527000 4.471578 11.795016
620 1 2 190.527000 4.471578 8.164176
621 1 1 0.000000 5.365893 9.480000
622 1 1 1.549000 6.260209 7.164984
623 1 2 1.549000 6.260209 10.795824
624 1 1 0.000000 7.154524 11.795016
625 1 2 0.000000 7.154524 8.164176
626 1 1 1.549000 8.048840 9.480000
627 1 1 0.000000 8.943155 7.164984
628 1 2 0.000000 8.943155 10.795824
629 1 1 1.549000 9.837471 11.795016
630 1 2 1.549000 9.837471 8.164176
631 1 1 3.098000 5.365893 9.480000
632 1 1 4.647000 6.260209 7.164984
633 1 2 4.647000 6.260209 10.795824
634 1 1 3.098000 7.154524 11.795016
635 1 2 3.098000 7.154524 8.164176
636 1 1 4.647000 8.048840 9.480000
637 1 1 3.098000 8.943155 7.164984
638 1 2 3.098000 8.943155 10.795824
639 1 1 4.647000 9.837471 11.795016
640 1 2 4.647000 9.837471 8.164176
641 1 1 6.196000 5.365893 9.480000
642 1 1 7.745000 6.260209 7.164984
643 1 2 7.745000 6.260209 10.795824
644 1 1 6.196000 7.154524 11.795016
645 1 2 6.196000 7.154524 8.164176
646 1 1 7.745000 8.048840 9.480000
647 1 1 6.196000 8.943155 7.164984
648 1 2 6.196000 8.943155 10.795824
649 1 1 7.745000 9.837471 11.795016
650 1 2 7.745000 9.837471 8.164176
651 1 1 9.294000 5.365893 9.480000
652 1 1 10.843000 6.260209 7.164984
653 1 2 10.843000 6.260209 10.795824
654 1 1 9.294000 7.154524 11.795016
655 1 2 9.294000 7.154524 8.164176
656 1 1 10.843000 8.048840 9.480000
657 1 1 9.294000 8.943155 7.164984
658 1 2 9.294000 8.943155 10.795824
659 1 1 10.843000 9.837471 11.795016
660 1 2 10.843000 9.837471 8.164176
661 1 1 12.392000 5.365893 9.480000
662 1 1 13.941000 6.260209 7.164984
663 1 2 13.941000 6.260209 10.795824
664 1 1 12.392000 7.154524 11.795016
665 1 2 12.392000 7.154524 8.164176
666 1 1 13.941000 8.048840 9.480000
667 1 1 12.392000 8.943155 7.164984
668 1 2 12.392000 8.943155 10.795824
669 1 1 13.941000 9.837471 11.795016
670 1 2 13.941000 9.837471 8.164176
671 1 1 15.490000 5.365893 9.480000
672 1 1 17.039000 6.260209 7.164984
673 1 2 17.039000 6.260209 10.795824
674 1 1 15.490000 7.154524 11.795016
675 1 2 15.490000 7.154524 8.164176
676 1 1 17.039000 8.048840 9.480000
677 1 1 15.490000 8.943155 7.164984
678 1 2 15.490000 8.943155 10.795824
679 1 1 17.039000 9.837471 11.795016
680 1 2 17.039000 9.837471 8.164176
681 1 1 18.588000 5.365893 9.480000
682 1 1 20.137000 6.260209 7.164984
683 1 2 20.137000 6.260209 10.795824
684 1 1 18.588000 7.154524 11.795016
685 1 2 18.588000 7.154524 8.164176
686 1 1 20.137000 8.048840 9.480000
687 1 1 18.588000 8.943155 7.164984
688 1 2 18.588000 8.943155 10.795824
689 1 1 20.137000 9.837471 11.795016
690 1 2 20.137000 9.837471 8.164176
691 1 1 21.686000 5.365893 9.480000
692 1 1 23.235000 6.260209 7.164984
693 1 2 23.235000 6.260209 10.795824
694 1 1 21.686000 7.154524 11.795016
695 1 2 21.686000 7.154524 8.164176
696 1 1 23.235000 8.048840 9.480000
697 1 1 21.686000 8.943155 7.164984
698 1 2 21.686000 8.943155 10.795824
699 1 1 23.235000 9.837471 11.795016
700 1 2 23.235000 9.837471 8.164176
701 1 1 24.784000 5.365893 9.480000
702 1 1 26.333000 6.260209 7.164984
703 1 2 26.333000 6.260209 10.795824
704 1 1 24.784000 7.154524 11.795016
705 1 2 24.784000 7.154524 8.164176
706 1 1 26.333000 8.048840 9.480000
707 1 1 24.784000 8.943155 7.164984
708 1 2 24.784000 8.943155 10.795824
709 1 1 26.333000 9.837471 11.795016
710 1 2 26.333000 9.837471 8.164176
711 1 1 27.882000 5.365893 9.480000
712 1 1 29.431000 6.260209 7.164984
713 1 2 29.431000 6.260209 10.795824
714 1 1 27.882000 7.154524 11.795016
715 1 2 27.882000 7.154524 8.164176
716 1 1 29.431000 8.048840 9.480000
717 1 1 27.882000 8.943155 7.164984
718 1 2 27.882000 8.943155 10.795824
719 1 1 29.431000 9.837471 11.795016
720 1 2 29.431000 9.837471 8.164176
721 1 1 30.980000 5.365893 9.480000
722 1 1 32.529000 6.260209 7.164984
723 1 2 32.529000 6.260209 10.795824
724 1 1 30.980000 7.154524 11.795016
725 1 2 30.980000 7.154524 8.164176
726 1 1 32.529000 8.048840 9.480000
727 1 1 30.980000 8.943155 7.164984
728 1 2 30.980000 8.943155 10.795824
729 1 1 32.529000 9.837471 11.795016
730 1 2 32.529000 9.837471 8.164176
731 1 1 34.078000 5.365893 9.480000
732 1 1 35.627000 6.260209 7.164984
733 1 2 35.627000 6.260209 10.795824
734 1 1 34.078000 7.154524 11.795016
735 1 2 34.078000 7.154524 8.164176
736 1 1 35.627000 8.048840 9.480000
737 1 1 34.078000 8.943155 7.164984
738 1 2 34.078000 8.943155 10.795824
739 1 1 35.627000 9.837471 11.795016
740 1 2 35.627000 9.837471 8.164176
741 1 1 37.176000 5.365893 9.480000
742 1 1 38.725000 6.260209 7.164984
743 1 2 38.725000 6.260209 10.795824
744 1 1 37.176000 7.154524 11.795016
745 1 2 37.176000 7.154524 8.164176
746 1 1 38.725000 8.048840 9.480000
747 1 1 37.176000 8.943155 7.164984
748 1 2 37.176000 8.943155 10.795824
749 1 1 38.725000 9.837471 11.795016
750 1 2 38.725000 9.837471 8.164176
751 1 1 40.274000 5.365893 9.480000
752 1 1 41.823000 6.260209 7.164984
753 1 2 41.823000 6.260209 10.795824
754 1 1 40.274000 7.154524 11.795016
755 1 2 40.274000 7.154524 8.164176
756 1 1 41.823000 8.048840 9.480000
757 1 1 40.274000 8.943155 7.164984
758 1 2 40.274000 8.943155 10.795824
759 1 1 41.823000 9.837471 11.795016
760 1 2 41.823000 9.837471 8.164176
761 1 1 43.372000 5.365893 9.480000
762 1 1 44.921000 6.260209 7.164984
763 1 2 44.921000 6.260209 10.795824
764 1 1 43.372000 7.154524 11.795016
765 1 2 43.372000 7.154524 8.164176
766 1 1 44.921000 8.048840 9.480000
767 1 1 43.372000 8.943155 7.164984
768 1 2 43.372000 8.943155 10.795824
769 1 1 44.921000 9.837471 11.795016
770 1 2 44.921000 9.837471 8.164176
771 1 1 46.470000 5.365893 9.480000
772 1 1 48.019000 6.260209 7.164984
773 1 2 48.019000 6.260209 10.795824
774 1 1 46.470000 7.154524 11.795016
775 1 2 46.470000 7.154524 8.164176
776 1 1 48.019000 8.048840 9.480000
777 1 1 46.470000 8.943155 7.164984
778 1 2 46.470000 8.943155 10.795824
779 1 1 48.019000 9.837471 11.795016
780 1 2 48.019000 9.837471 8.164176
781 1 1 49.568000 5.365893 9.480000
782 1 1 51.117000 6.260209 7.164984
783 1 2 51.117000 6.260209 10.795824
784 1 1 49.568000 7.154524 11.795016
785 1 2 49.568000 7.154524 8.164176
786 1 1 51.117000 8.048840 9.480000
787 1 1 49.568000 8.943155 7.164984
788 1 2 49.568000 8.943155 10.795824
789 1 1 51.117000 9.837471 11.795016
790 1 2 51.117000 9.837471 8.164176
791 1 1 52.666000 5.365893 9.480000
792 1 1 54.215000 6.260209 7.164984
793 1 2 54.215000 6.260209 10.795824
794 1 1 52.666000 7.154524 11.795016
795 1 2 52.666000 7.154524 8.164176
796 1 1 54.215000 8.048840 9.480000
797 1 1 52.666000 8.943155 7.164984
798 1 2 52.666000 8.943155 10.795824
799 1 1 54.215000 9.837471 11.795016
800 1 2 54.215000 9.837471 8.164176
801 1 1 55.764000 5.365893 9.480000
802 1 1 57.313000 6.260209 7.164984
803 1 2 57.313000 6.260209 10.795824
804 1 1 55.764000 7.154524 11.795016
805 1 2 55.764000 7.154524 8.164176
806 1 1 57.313000 8.048840 9.480000
807 1 1 55.764000 8.943155 7.164984
808 1 2 55.764000 8.943155 10.795824
809 1 1 57.313000 9.837471 11.795016
810 1 2 57.313000 9.837471 8.164176
811 1 1 58.862000 5.365893 9.480000
812 1 1 60.411000 6.260209 7.164984
813 1 2 60.411000 6.260209 10.795824
814 1 1 58.862000 7.154524 11.795016
815 1 2 58.862000 7.154524 8.164176