ITEM: TIMESTEP
0
ITEM: NUMBER OF ATOMS
100     
ITEM: BOX BOUNDS pp pp pp
0.000000000      15.490000000    
0.000000000      10.731786000    
0.000000000      18.800000000    
ITEM: ATOMS id mol type xu yu zu
1 1 1 0.000000 0.000000 9.480000
2 1 1 1.549000 0.894316 7.164984
3 1 2 1.549000 0.894316 10.795824
4 1 1 0.000000 1.788631 11.795016
5 1 2 0.000000 1.788631 8.164176
6 1 1 1.549000 2.682947 9.480000
7 1 1 0.000000 3.577262 7.164984
8 1 2 0.000000 3.577262 10.795824
9 1 1 1.549000 4.471578 11.795016
10 1 2 1.549000 4.471578 8.164176
11 1 1 3.098000 0.000000 9.480000
12 1 1 4.647000 0.894316 7.164984
13 1 2 4.647000 0.894316 10.795824
14 1 1 3.098000 1.788631 11.795016
15 1 2 3.098000 1.788631 8.164176
16 1 1 4.647000 2.682947 9.480000
17 1 1 3.098000 3.577262 7.164984
18 1 2 3.098000 3.577262 10.795824
19 1 1 4.647000 4.471578 11.795016
20 1 2 4.647000 4.471578 8.164176
21 1 1 6.196000 0.000000 9.480000
22 1 1 7.745000 0.894316 7.164984
23 1 2 7.745000 0.894316 10.795824
24 1 1 6.196000 1.788631 11.795016
25 1 2 6.196000 1.788631 8.164176
26 1 1 7.745000 2.682947 9.480000
27 1 1 6.196000 3.577262 7.164984
28 1 2 6.196000 3.577262 10.795824
29 1 1 7.745000 4.471578 11.795016
30 1 2 7.745000 4.471578 8.164176
31 1 1 9.294000 0.000000 9.480000
32 1 1 10.843000 0.894316 7.164984
33 1 2 10.843000 0.894316 10.795824
34 1 1 9.294000 1.788631 11.795016
35 1 2 9.294000 1.788631 8.164176
36 1 1 10.843000 2.682947 9.480000
37 1 1 9.294000 3.577262 7.164984
38 1 2 9.294000 3.577262 10.795824
39 1 1 10.843000 4.471578 11.795016
40 1 2 10.843000 4.471578 8.164176
41 1 1 12.392000 0.000000 9.480000
42 1 1 13.941000 0.894316 7.164984
43 1 2 13.941000 0.894316 10.795824
44 1 1 12.392000 1.788631 11.795016
45 1 2 12.392000 1.788631 8.164176
46 1 1 13.941000 2.682947 9.480000
47 1 1 12.392000 3.577262 7.164984
48 1 2 12.392000 3.577262 10.795824
49 1 1 13.941000 4.471578 11.795016
50 1 2 13.941000 4.471578 8.164176
51 1 1 0.000000 5.365893 9.480000
52 1 1 1.549000 6.260209 7.164984
53 1 2 1.549000 6.260209 10.795824
54 1 1 0.000000 7.154524 11.795016
55 1 2 0.000000 7.154524 8.164176
56 1 1 1.549000 8.048840 9.480000
57 1 1 0.000000 8.943155 7.164984
58 1 2 0.000000 8.943155 10.795824
59 1 1 1.549000 9.837471 11.795016
60 1 2 1.549000 9.837471 8.164176
61 1 1 3.098000 5.365893 9.480000
62 1 1 4.647000 6.260209 7.164984
63 1 2 4.647000 6.260209 10.795824
64 1 1 3.098000 7.154524 11.795016
65 1 2 3.098000 7.154524 8.164176
66 1 1 4.647000 8.048840 9.480000
67 1 1 3.098000 8.943155 7.164984
68 1 2 3.098000 8.943155 10.795824
69 1 1 4.647000 9.837471 11.795016
70 1 2 4.647000 9.837471 8.164176
71 1 1 6.196000 5.365893 9.480000
72 1 1 7.745000 6.260209 7.164984
73 1 2 7.745000 6.260209 10.795824
74 1 1 6.196000 7.154524 11.795016
75 1 2 6.196000 7.154524 8.164176
76 1 1 7.745000 8.048840 9.480000
77 1 1 6.196000 8.943155 7.164984
78 1 2 6.196000 8.943155 10.795824
79 1 1 7.745000 9.837471 11.795016
80 1 2 7.745000 9.837471 8.164176
81 1 1 9.294000 5.365893 9.480000
82 1 1 10.843000 6.260209 7.164984
83 1 2 10.843000 6.260209 10.795824
84 1 1 9.294000 7.154524 11.795016
85 1 2 9.294000 7.154524 8.164176
86 1 1 10.843000 8.048840 9.480000
87 1 1 9.294000 8.943155 7.164984
88 1 2 9.294000 8.943155 10.795824
89 1 1 10.843000 9.837471 11.795016
90 1 2 10.843000 9.837471 8.164176
91 1 1 12.392000 5.365893 9.480000
92 1 1 13.941000 6.260209 7.164984
93 1 2 13.941000 6.260209 10.795824
94 1 1 12.392000 7.154524 11.795016
95 1 2 12.392000 7.154524 8.164176
96 1 1 13.941000 8.048840 9.480000
97 1 1 12.392000 8.943155 7.164984
98 1 2 12.392000 8.943155 10.795824
99 1 1 13.941000 9.837471 11.795016
100 1 2 13.941000 9.837471 8.164176
